 running on   24 total cores
 distrk:  each k-point on   24 cores,    1 groups
 distr:  one band on    6 cores,    4 groups
 using from now: INCAR     
 vasp.6.1.1 19Jun20 (build Nov 30 2020 11:51:22) complex                        
  
 POSCAR found type information on POSCAR NiGeMnFe
 POSCAR found :  4 types and      48 ions
 scaLAPACK will be used
 -----------------------------------------------------------------------------
|                                                                             |
|               ----> ADVICE to this user running VASP <----                  |
|                                                                             |
|     You have a (more or less) 'large supercell' and for larger cells it     |
|     might be more efficient to use real-space projection operators.         |
|     Therefore, try LREAL= Auto in the INCAR file.                           |
|     Mind: For very accurate calculation, you might also keep the            |
|     reciprocal projection scheme (i.e. LREAL=.FALSE.).                      |
|                                                                             |
 -----------------------------------------------------------------------------

 LDA part: xc-table for Pade appr. of Perdew
 POSCAR, INCAR and KPOINTS ok, starting setup
 FFT: planning ...
 WAVECAR not read
 entering main loop
       N       E                     dE             d eps       ncg     rms          rms(c)
DAV:   1     0.280920410272E+04    0.28092E+04   -0.10861E+05 99360   0.104E+03
DAV:   2     0.173338639760E+03   -0.26359E+04   -0.23507E+04 99360   0.266E+02
DAV:   3    -0.263515749585E+03   -0.43685E+03   -0.35900E+03 99504   0.124E+02
DAV:   4    -0.295076453591E+03   -0.31561E+02   -0.30157E+02121736   0.393E+01
DAV:   5    -0.295889244190E+03   -0.81279E+00   -0.81088E+00121424   0.655E+00    0.101E+02
DAV:   6    -0.377067896329E+03   -0.81179E+02   -0.22388E+02125736   0.104E+02    0.111E+02
DAV:   7    -0.314977422850E+03    0.62090E+02   -0.18294E+02122248   0.914E+01    0.693E+01
DAV:   8    -0.335040917972E+03   -0.20063E+02   -0.39147E+01141000   0.517E+01    0.809E+01
DAV:   9    -0.318074946583E+03    0.16966E+02   -0.33934E+01141280   0.410E+01    0.439E+01
DAV:  10    -0.322887227620E+03   -0.48123E+01   -0.29887E+01129952   0.487E+01    0.612E+01
DAV:  11    -0.306790353521E+03    0.16097E+02   -0.13496E+01150648   0.349E+01    0.250E+01
DAV:  12    -0.314396569697E+03   -0.76062E+01   -0.10890E+01139928   0.206E+01    0.290E+01
DAV:  13    -0.311028485681E+03    0.33681E+01   -0.43246E+00138840   0.211E+01    0.134E+01
DAV:  14    -0.313172649620E+03   -0.21442E+01   -0.30395E+00154576   0.151E+01    0.194E+01
DAV:  15    -0.312899342806E+03    0.27331E+00   -0.29850E+00149664   0.141E+01    0.826E+00
DAV:  16    -0.313059978972E+03   -0.16064E+00   -0.10575E+00165928   0.666E+00    0.691E+00
DAV:  17    -0.312998736671E+03    0.61242E-01   -0.38948E-01133672   0.544E+00    0.471E+00
DAV:  18    -0.313091566263E+03   -0.92830E-01   -0.17708E-01148264   0.298E+00    0.376E+00
DAV:  19    -0.313141496766E+03   -0.49931E-01   -0.11305E-01138024   0.288E+00    0.355E+00
DAV:  20    -0.313164030771E+03   -0.22534E-01   -0.54665E-02133744   0.205E+00    0.302E+00
DAV:  21    -0.313221680262E+03   -0.57649E-01   -0.51405E-02151136   0.223E+00    0.327E+00
DAV:  22    -0.313192117726E+03    0.29563E-01   -0.59473E-02141872   0.261E+00    0.231E+00
DAV:  23    -0.313173865088E+03    0.18253E-01   -0.35239E-02147136   0.105E+00    0.101E+00
DAV:  24    -0.313173442653E+03    0.42244E-03   -0.99132E-03140072   0.812E-01    0.755E-01
DAV:  25    -0.313173737899E+03   -0.29525E-03   -0.50194E-03147168   0.413E-01    0.512E-01
DAV:  26    -0.313174931605E+03   -0.11937E-02   -0.13915E-03152400   0.382E-01    0.572E-01
DAV:  27    -0.313174204717E+03    0.72689E-03   -0.10151E-03148936   0.347E-01    0.454E-01
DAV:  28    -0.313174179190E+03    0.25528E-04   -0.82870E-04153392   0.129E-01    0.309E-01
DAV:  29    -0.313174375881E+03   -0.19669E-03   -0.44332E-04138720   0.148E-01    0.149E-01
DAV:  30    -0.313174347588E+03    0.28293E-04   -0.18725E-04159880   0.514E-02    0.494E-02
DAV:  31    -0.313174348436E+03   -0.84835E-06   -0.47638E-05121392   0.230E-02    0.277E-02
DAV:  32    -0.313174351769E+03   -0.33327E-05   -0.83283E-06126944   0.163E-02    0.148E-02
DAV:  33    -0.313174351466E+03    0.30323E-06   -0.42748E-06 93848   0.101E-02
   1 F= -.31317435E+03 E0= -.31316022E+03  d E =-.423919E-01  mag=    46.7208
