 vasp.6.1.1 19Jun20 (build Nov 30 2020 11:51:22) complex                        
  
 executed on             LinuxIFC date 2021.03.24  01:59:05
 running on   24 total cores
 distrk:  each k-point on   24 cores,    1 groups
 distr:  one band on NCORE=   6 cores,    4 groups


--------------------------------------------------------------------------------------------------------


 INCAR:
 POTCAR:    PAW_PBE Ni 02Aug2007                  
 POTCAR:    PAW_PBE Ge 05Jan2001                  
 POTCAR:    PAW_PBE Mn 06Sep2000                  
 POTCAR:    PAW_PBE Fe 06Sep2000                  
 POTCAR:    PAW_PBE Ni 02Aug2007                  
   SHA256 =  0534bc51ca8003dfef23f56753fef9fdd3e22eac8d719fccacb59f3e6b7a69c7 Ni/POTCAR             
   COPYR  = (c) Copyright 02Aug2007 Georg Kresse                                                    
   COPYR  = This file is part of the software VASP. Any use, copying, and all other rights are regul
   COPYR  = If you do not have a valid VASP license, you may not use, copy or distribute this file. 
   VRHFIN =Ni:                                                                                      
   LEXCH  = PE                                                                                      
   EATOM  =  1077.6739 eV,   79.2068 Ry                                                             
                                                                                                    
   TITEL  = PAW_PBE Ni 02Aug2007                                                                    
   LULTRA =        F    use ultrasoft PP ?                                                          
   IUNSCR =        1    unscreen: 0-lin 1-nonlin 2-no                                               
   RPACOR =    2.000    partial core radius                                                         
   POMASS =   58.690; ZVAL   =   10.000    mass and valenz                                          
   RCORE  =    2.300    outmost cutoff radius                                                       
   RWIGS  =    2.430; RWIGS  =    1.286    wigner-seitz radius (au A)                               
   ENMAX  =  269.532; ENMIN  =  202.149 eV                                                          
   RCLOC  =    1.201    cutoff for local pot                                                        
   LCOR   =        T    correct aug charges                                                         
   LPAW   =        T    paw PP                                                                      
   EAUG   =  544.565                                                                                
   DEXC   =    0.000                                                                                
   RMAX   =    2.357    core radius for proj-oper                                                   
   RAUG   =    1.300    factor for augmentation sphere                                              
   RDEP   =    2.390    radius for radial grids                                                     
   RDEPT  =    1.838    core radius for aug-charge                                                  
                                                                                                    
   Atomic configuration                                                                             
    9 entries                                                                                       
     n  l   j            E        occ.                                                              
     1  0  0.50     -8206.4253   2.0000                                                             
     2  0  0.50      -976.1748   2.0000                                                             
     2  1  1.50      -839.0571   6.0000                                                             
     3  0  0.50      -105.9991   2.0000                                                             
     3  1  1.50       -66.4603   6.0000                                                             
     3  2  2.50        -4.6458   9.0000                                                             
     4  0  0.50        -4.4926   1.0000                                                             
     4  1  1.50        -4.0817   0.0000                                                             
     4  3  2.50        -1.3606   0.0000                                                             
   Description                                                                                      
     l       E           TYP  RCUT    TYP  RCUT                                                     
     2     -4.6457903     23  2.300                                                                 
     2     -6.0063729     23  2.300                                                                 
     0     -4.4925590     23  2.300                                                                 
     0      5.0102601     23  2.300                                                                 
     1     -2.7211652     23  2.300                                                                 
     1     16.5183231     23  2.300                                                                 
  local pseudopotential read in
  partial core-charges read in
  partial kinetic energy density read in
  atomic valenz-charges read in
  non local Contribution for L=           2  read in
    real space projection operators read in
  non local Contribution for L=           2  read in
    real space projection operators read in
  non local Contribution for L=           0  read in
    real space projection operators read in
  non local Contribution for L=           0  read in
    real space projection operators read in
  non local Contribution for L=           1  read in
    real space projection operators read in
  non local Contribution for L=           1  read in
    real space projection operators read in
    PAW grid and wavefunctions read in
 
   number of l-projection  operators is LMAX  =           6
   number of lm-projection operators is LMMAX =          18
 
 POTCAR:    PAW_PBE Ge 05Jan2001                  
   SHA256 =  7ff11deedcda39f1950abeda971a84a1f98a719a97bc9679a0df455c008734f8 Ge/POTCAR             
   COPYR  = (c) Copyright 05Jan2001 Georg Kresse                                                    
   COPYR  = This file is part of the software VASP. Any use, copying, and all other rights are regul
   COPYR  = If you do not have a valid VASP license, you may not use, copy or distribute this file. 
   VRHFIN =Ge: s2p2                                                                                 
   LEXCH  = PE                                                                                      
   EATOM  =   104.9960 eV,    7.7170 Ry                                                             
                                                                                                    
   TITEL  = PAW_PBE Ge 05Jan2001                                                                    
   LULTRA =        F    use ultrasoft PP ?                                                          
   IUNSCR =        1    unscreen: 0-lin 1-nonlin 2-no                                               
   RPACOR =    2.170    partial core radius                                                         
   POMASS =   72.610; ZVAL   =    4.000    mass and valenz                                          
   RCORE  =    2.300    outmost cutoff radius                                                       
   RWIGS  =    2.300; RWIGS  =    1.217    wigner-seitz radius (au A)                               
   ENMAX  =  173.807; ENMIN  =  130.355 eV                                                          
   ICORE  =        3    local potential                                                             
   LCOR   =        T    correct aug charges                                                         
   LPAW   =        T    paw PP                                                                      
   EAUG   =  385.843                                                                                
   DEXC   =    0.000                                                                                
   RMAX   =    2.342    core radius for proj-oper                                                   
   RAUG   =    1.300    factor for augmentation sphere                                              
   RDEP   =    2.318    radius for radial grids                                                     
   RDEPT  =    2.103    core radius for aug-charge                                                  
                                                                                                    
   Atomic configuration                                                                             
   10 entries                                                                                       
     n  l   j            E        occ.                                                              
     1  0  0.50    -10959.8463   2.0000                                                             
     2  0  0.50     -1371.6056   2.0000                                                             
     2  1  1.50     -1198.4791   6.0000                                                             
     3  0  0.50      -168.4733   2.0000                                                             
     3  1  1.50      -115.6019   6.0000                                                             
     3  2  2.50       -29.3106  10.0000                                                             
     4  0  0.50       -11.7309   2.0000                                                             
     4  1  0.50        -3.8952   2.0000                                                             
     4  2  1.50        -4.0817   0.0000                                                             
     4  3  2.50        -4.0817   0.0000                                                             
   Description                                                                                      
     l       E           TYP  RCUT    TYP  RCUT                                                     
     0    -11.7309493     23  2.300                                                                 
     0     -7.4578696     23  2.300                                                                 
     1     -3.8952261     23  2.300                                                                 
     1      6.1178114     23  2.300                                                                 
     2     -4.0817478     23  2.300                                                                 
     3     -1.3605826      7  2.300                                                                 
  local pseudopotential read in
  partial core-charges read in
  partial kinetic energy density read in
  atomic valenz-charges read in
  non local Contribution for L=           0  read in
    real space projection operators read in
  non local Contribution for L=           0  read in
    real space projection operators read in
  non local Contribution for L=           1  read in
    real space projection operators read in
  non local Contribution for L=           1  read in
    real space projection operators read in
  non local Contribution for L=           2  read in
    real space projection operators read in
    PAW grid and wavefunctions read in
 
   number of l-projection  operators is LMAX  =           5
   number of lm-projection operators is LMMAX =          13
 
 POTCAR:    PAW_PBE Mn 06Sep2000                  
   SHA256 =  791c87526310ff945dc83749a51ee60ee299d345ff72743aeb14609b9ed68bfc Mn/POTCAR             
   COPYR  = (c) Copyright 06Sep2000 Georg Kresse                                                    
   COPYR  = This file is part of the software VASP. Any use, copying, and all other rights are regul
   COPYR  = If you do not have a valid VASP license, you may not use, copy or distribute this file. 
   VRHFIN =Mn: d6 s1                                                                                
   LEXCH  = PE                                                                                      
   EATOM  =   416.7541 eV,   30.6306 Ry                                                             
                                                                                                    
   TITEL  = PAW_PBE Mn 06Sep2000                                                                    
   LULTRA =        F    use ultrasoft PP ?                                                          
   IUNSCR =        1    unscreen: 0-lin 1-nonlin 2-no                                               
   RPACOR =    2.000    partial core radius                                                         
   POMASS =   54.938; ZVAL   =    7.000    mass and valenz                                          
   RCORE  =    2.300    outmost cutoff radius                                                       
   RWIGS  =    2.500; RWIGS  =    1.323    wigner-seitz radius (au A)                               
   ENMAX  =  269.864; ENMIN  =  202.398 eV                                                          
   RCLOC  =    1.725    cutoff for local pot                                                        
   LCOR   =        T    correct aug charges                                                         
   LPAW   =        T    paw PP                                                                      
   EAUG   =  500.711                                                                                
   DEXC   =    0.000                                                                                
   RMAX   =    2.343    core radius for proj-oper                                                   
   RAUG   =    1.300    factor for augmentation sphere                                              
   RDEP   =    2.338    radius for radial grids                                                     
   RDEPT  =    1.911    core radius for aug-charge                                                  
                                                                                                    
   Atomic configuration                                                                             
    9 entries                                                                                       
     n  l   j            E        occ.                                                              
     1  0  0.50     -6424.8288   2.0000                                                             
     2  0  0.50      -739.1154   2.0000                                                             
     2  1  1.50      -625.3949   6.0000                                                             
     3  0  0.50       -81.6100   2.0000                                                             
     3  1  1.50       -50.4667   6.0000                                                             
     3  2  2.50        -3.3745   6.0000                                                             
     4  0  0.50        -4.1331   1.0000                                                             
     4  1  0.50        -4.0817   0.0000                                                             
     4  3  2.50        -1.3606   0.0000                                                             
   Description                                                                                      
     l       E           TYP  RCUT    TYP  RCUT                                                     
     2     -3.3744664     23  2.300                                                                 
     2     -4.7350490     23  2.300                                                                 
     0     -4.1331408     23  2.300                                                                 
     0      7.6656614     23  2.300                                                                 
     1     -2.7211652     23  2.300                                                                 
     1     20.4087390     23  2.300                                                                 
  local pseudopotential read in
  partial core-charges read in
  partial kinetic energy density read in
  atomic valenz-charges read in
  non local Contribution for L=           2  read in
    real space projection operators read in
  non local Contribution for L=           2  read in
    real space projection operators read in
  non local Contribution for L=           0  read in
    real space projection operators read in
  non local Contribution for L=           0  read in
    real space projection operators read in
  non local Contribution for L=           1  read in
    real space projection operators read in
  non local Contribution for L=           1  read in
    real space projection operators read in
    PAW grid and wavefunctions read in
 
   number of l-projection  operators is LMAX  =           6
   number of lm-projection operators is LMMAX =          18
 
 POTCAR:    PAW_PBE Fe 06Sep2000                  
   SHA256 =  cd5a22d9368cc8b5cc476bea79732366149640da08ac9009b0e1b7fc627eea28 Fe/POTCAR             
   COPYR  = (c) Copyright 06Sep2000 Georg Kresse                                                    
   COPYR  = This file is part of the software VASP. Any use, copying, and all other rights are regul
   COPYR  = If you do not have a valid VASP license, you may not use, copy or distribute this file. 
   VRHFIN =Fe:  d7 s1                                                                               
   LEXCH  = PE                                                                                      
   EATOM  =   594.3153 eV,   43.6809 Ry                                                             
                                                                                                    
   TITEL  = PAW_PBE Fe 06Sep2000                                                                    
   LULTRA =        F    use ultrasoft PP ?                                                          
   IUNSCR =        1    unscreen: 0-lin 1-nonlin 2-no                                               
   RPACOR =    2.000    partial core radius                                                         
   POMASS =   55.847; ZVAL   =    8.000    mass and valenz                                          
   RCORE  =    2.300    outmost cutoff radius                                                       
   RWIGS  =    2.460; RWIGS  =    1.302    wigner-seitz radius (au A)                               
   ENMAX  =  267.882; ENMIN  =  200.911 eV                                                          
   RCLOC  =    1.701    cutoff for local pot                                                        
   LCOR   =        T    correct aug charges                                                         
   LPAW   =        T    paw PP                                                                      
   EAUG   =  511.368                                                                                
   DEXC   =    0.000                                                                                
   RMAX   =    2.356    core radius for proj-oper                                                   
   RAUG   =    1.300    factor for augmentation sphere                                              
   RDEP   =    2.442    radius for radial grids                                                     
   RDEPT  =    1.890    core radius for aug-charge                                                  
                                                                                                    
   Atomic configuration                                                                             
    9 entries                                                                                       
     n  l   j            E        occ.                                                              
     1  0  0.50     -6993.8440   2.0000                                                             
     2  0  0.50      -814.6047   2.0000                                                             
     2  1  1.50      -693.3689   6.0000                                                             
     3  0  0.50       -89.4732   2.0000                                                             
     3  1  1.50       -55.6373   6.0000                                                             
     3  2  2.50        -3.8151   7.0000                                                             
     4  0  0.50        -4.2551   1.0000                                                             
     4  1  1.50        -3.4015   0.0000                                                             
     4  3  2.50        -1.3606   0.0000                                                             
   Description                                                                                      
     l       E           TYP  RCUT    TYP  RCUT                                                     
     2     -3.8151135     23  2.300                                                                 
     2     -5.1756961     23  2.300                                                                 
     0     -4.2550963     23  2.300                                                                 
     0      7.2035603     23  2.300                                                                 
     1     -2.7211652     23  2.300                                                                 
     1     18.4316424     23  2.300                                                                 
  local pseudopotential read in
  partial core-charges read in
  partial kinetic energy density read in
  atomic valenz-charges read in
  non local Contribution for L=           2  read in
    real space projection operators read in
  non local Contribution for L=           2  read in
    real space projection operators read in
  non local Contribution for L=           0  read in
    real space projection operators read in
  non local Contribution for L=           0  read in
    real space projection operators read in
  non local Contribution for L=           1  read in
    real space projection operators read in
  non local Contribution for L=           1  read in
    real space projection operators read in
    PAW grid and wavefunctions read in
 
   number of l-projection  operators is LMAX  =           6
   number of lm-projection operators is LMMAX =          18
 
 -----------------------------------------------------------------------------
|                                                                             |
|               ----> ADVICE to this user running VASP <----                  |
|                                                                             |
|     You have a (more or less) 'large supercell' and for larger cells it     |
|     might be more efficient to use real-space projection operators.         |
|     Therefore, try LREAL= Auto in the INCAR file.                           |
|     Mind: For very accurate calculation, you might also keep the            |
|     reciprocal projection scheme (i.e. LREAL=.FALSE.).                      |
|                                                                             |
 -----------------------------------------------------------------------------

  PAW_PBE Ni 02Aug2007                  :
 energy of atom  1       EATOM=-1077.6739
 kinetic energy error for atom=    0.0038 (will be added to EATOM!!)
  PAW_PBE Ge 05Jan2001                  :
 energy of atom  2       EATOM= -104.9960
 kinetic energy error for atom=    0.0003 (will be added to EATOM!!)
  PAW_PBE Mn 06Sep2000                  :
 energy of atom  3       EATOM= -416.7541
 kinetic energy error for atom=    0.0033 (will be added to EATOM!!)
  PAW_PBE Fe 06Sep2000                  :
 energy of atom  4       EATOM= -594.3153
 kinetic energy error for atom=    0.0034 (will be added to EATOM!!)
 
 
 POSCAR: MnFeNiGe_hex
  positions in direct lattice
  velocities in cartesian coordinates
 exchange correlation table for  LEXCH =        8
   RHO(1)=    0.500       N(1)  =     2000
   RHO(2)=  100.500       N(2)  =     4000
 


--------------------------------------------------------------------------------------------------------


 ion  position               nearest neighbor table
   1  0.667  0.833  0.375-  27 2.36  29 2.36  23 2.36  17 2.63  26 2.63  36 2.70  45 2.70  38 2.70
                            46 2.70  43 2.70  48 2.70
   2  0.333  0.167  0.625-  28 2.36  30 2.36  24 2.36  25 2.63  18 2.63  39 2.70  44 2.70  46 2.70
                            48 2.70  37 2.70  45 2.70
   3  0.167  0.833  0.375-  25 2.36  23 2.36  29 2.36  28 2.63  19 2.63  40 2.70  47 2.70  43 2.70
                            48 2.70  38 2.70  46 2.70
   4  0.833  0.167  0.625-  26 2.36  24 2.36  30 2.36  27 2.63  20 2.63  39 2.70  44 2.70  46 2.70
                            48 2.70  47 2.70  41 2.70
   5  0.167  0.333  0.375-  29 2.36  27 2.36  25 2.36  24 2.63  21 2.63  43 2.70  48 2.70  47 2.70
                            40 2.70  36 2.70  45 2.70
   6  0.833  0.667  0.625-  30 2.36  28 2.36  26 2.36  23 2.63  22 2.63  37 2.70  41 2.70  45 2.70
                            47 2.70  44 2.70  48 2.70
   7  0.833  0.667  0.125-  31 2.36  19 2.36  17 2.36  23 2.63  22 2.63  33 2.70  35 2.70  36 2.70
                            40 2.70  42 2.70  43 2.70
   8  0.167  0.333  0.875-  18 2.36  32 2.36  20 2.36  24 2.63  21 2.63  42 2.70  44 2.70  35 2.70
                            41 2.70  37 2.70  33 2.70
   9  0.333  0.167  0.125-  19 2.36  31 2.36  21 2.36  25 2.63  18 2.63  34 2.70  38 2.70  42 2.70
                            43 2.70  36 2.70  33 2.70
  10  0.667  0.833  0.875-  20 2.36  32 2.36  22 2.36  26 2.63  17 2.63  33 2.70  37 2.70  34 2.70
                            39 2.70  42 2.70  44 2.70
  11  0.833  0.167  0.125-  17 2.36  21 2.36  31 2.36  27 2.63  20 2.63  34 2.70  38 2.70  42 2.70
                            43 2.70  35 2.70  40 2.70
  12  0.167  0.833  0.875-  18 2.36  22 2.36  32 2.36  28 2.63  19 2.63  35 2.70  41 2.70  42 2.70
                            44 2.70  39 2.70  34 2.70
  13  0.333  0.667  0.125-  21 2.36  17 2.36  19 2.36  29 2.63  32 2.63  33 2.70  35 2.70  36 2.70
                            40 2.70  38 2.70  34 2.70
  14  0.667  0.333  0.875-  22 2.36  20 2.36  18 2.36  30 2.63  31 2.63  34 2.70  39 2.70  37 2.70
                            33 2.70  35 2.70  41 2.70
  15  0.667  0.333  0.375-  23 2.36  25 2.36  27 2.36  30 2.63  31 2.63  38 2.70  46 2.70  45 2.70
                            36 2.70  40 2.70  47 2.70
  16  0.333  0.667  0.625-  24 2.36  26 2.36  28 2.36  29 2.63  32 2.63  37 2.70  41 2.70  45 2.70
                            47 2.70  46 2.70  39 2.70
  17  0.667  0.833  0.125-  11 2.36  13 2.36   7 2.36   1 2.63  10 2.63  33 2.70  36 2.70  34 2.70
                            38 2.70  42 2.70  43 2.70
  18  0.333  0.167  0.875-   8 2.36  12 2.36  14 2.36   2 2.63   9 2.63  42 2.70  44 2.70  33 2.70
                            37 2.70  34 2.70  39 2.70
  19  0.167  0.833  0.125-   9 2.36   7 2.36  13 2.36  12 2.63   3 2.63  35 2.70  40 2.70  42 2.70
                            43 2.70  38 2.70  34 2.70
  20  0.833  0.167  0.875-  10 2.36   8 2.36  14 2.36  11 2.63   4 2.63  34 2.70  39 2.70  42 2.70
                            44 2.70  35 2.70  41 2.70
  21  0.167  0.333  0.125-  13 2.36  11 2.36   9 2.36   8 2.63   5 2.63  42 2.70  43 2.70  35 2.70
                            40 2.70  36 2.70  33 2.70
  22  0.833  0.667  0.875-  14 2.36  12 2.36  10 2.36   7 2.63   6 2.63  33 2.70  35 2.70  37 2.70
                            41 2.70  42 2.70  44 2.70
  23  0.833  0.667  0.375-  15 2.36   3 2.36   1 2.36   7 2.63   6 2.63  36 2.70  40 2.70  45 2.70
                            47 2.70  43 2.70  48 2.70
  24  0.167  0.333  0.625-  16 2.36   4 2.36   2 2.36   8 2.63   5 2.63  44 2.70  48 2.70  47 2.70
                            41 2.70  37 2.70  45 2.70
  25  0.333  0.167  0.375-   3 2.36  15 2.36   5 2.36   9 2.63   2 2.63  38 2.70  43 2.70  46 2.70
                            48 2.70  36 2.70  45 2.70
  26  0.667  0.833  0.625-   4 2.36  16 2.36   6 2.36  10 2.63   1 2.63  37 2.70  45 2.70  39 2.70
                            46 2.70  44 2.70  48 2.70
  27  0.833  0.167  0.375-   1 2.36   5 2.36  15 2.36  11 2.63   4 2.63  38 2.70  43 2.70  46 2.70
                            48 2.70  47 2.70  40 2.70
  28  0.167  0.833  0.625-   2 2.36   6 2.36  16 2.36  12 2.63   3 2.63  41 2.70  47 2.70  44 2.70
                            48 2.70  39 2.70  46 2.70
  29  0.333  0.667  0.375-   5 2.36   1 2.36   3 2.36  13 2.63  16 2.63  36 2.70  40 2.70  45 2.70
                            47 2.70  46 2.70  38 2.70
  30  0.667  0.333  0.625-   6 2.36   2 2.36   4 2.36  14 2.63  15 2.63  39 2.70  46 2.70  45 2.70
                            37 2.70  41 2.70  47 2.70
  31  0.667  0.333  0.125-   7 2.36   9 2.36  11 2.36  14 2.63  15 2.63  34 2.70  38 2.70  36 2.70
                            33 2.70  35 2.70  40 2.70
  32  0.333  0.667  0.875-   8 2.36  10 2.36  12 2.36  13 2.63  16 2.63  33 2.70  35 2.70  37 2.70
                            41 2.70  39 2.70  34 2.70
  33  0.500  0.500  0.000-  36 2.63  37 2.63  10 2.70  17 2.70  22 2.70  32 2.70  13 2.70   7 2.70
                            31 2.70  14 2.70   9 2.70  18 2.70  21 2.70   8 2.70
  34  0.500  0.000  0.000-  38 2.63  39 2.63  14 2.70  31 2.70  11 2.70   9 2.70  20 2.70  10 2.70
                            17 2.70  13 2.70  32 2.70  19 2.70  12 2.70  18 2.70
  35  0.000  0.500  0.000-  40 2.63  41 2.63  12 2.70  19 2.70  22 2.70  32 2.70  13 2.70   7 2.70
                             8 2.70  21 2.70  20 2.70  11 2.70  31 2.70  14 2.70
  36  0.500  0.500  0.250-  33 2.63  45 2.63   1 2.70  17 2.70  23 2.70  29 2.70  13 2.70   7 2.70
                            15 2.70  31 2.70   9 2.70  25 2.70   5 2.70  21 2.70
  37  0.500  0.500  0.750-  33 2.63  45 2.63  10 2.70  26 2.70   6 2.70  32 2.70  16 2.70  22 2.70
                            30 2.70  14 2.70   2 2.70  18 2.70  24 2.70   8 2.70
  38  0.500  0.000  0.250-  34 2.63  46 2.63  15 2.70  31 2.70  27 2.70  11 2.70   9 2.70  25 2.70
                            17 2.70   1 2.70  29 2.70  13 2.70   3 2.70  19 2.70
  39  0.500  0.000  0.750-  34 2.63  46 2.63  14 2.70  30 2.70   4 2.70   2 2.70  20 2.70  26 2.70
                            10 2.70  16 2.70  32 2.70  12 2.70  28 2.70  18 2.70
  40  0.000  0.500  0.250-  35 2.63  47 2.63   3 2.70  19 2.70  23 2.70  29 2.70  13 2.70   7 2.70
                             5 2.70  21 2.70  27 2.70  11 2.70  15 2.70  31 2.70
  41  0.000  0.500  0.750-  35 2.63  47 2.63  12 2.70  28 2.70   6 2.70  32 2.70  16 2.70  22 2.70
                             8 2.70  24 2.70   4 2.70  20 2.70  30 2.70  14 2.70
  42  0.000  0.000  0.000-  43 2.63  44 2.63  18 2.70   8 2.70  21 2.70  11 2.70   9 2.70  20 2.70
                            12 2.70  19 2.70   7 2.70  22 2.70  17 2.70  10 2.70
  43  0.000  0.000  0.250-  42 2.63  48 2.63   5 2.70  21 2.70  25 2.70  27 2.70  11 2.70   9 2.70
                            19 2.70   3 2.70   7 2.70  23 2.70  17 2.70   1 2.70
  44  0.000  0.000  0.750-  42 2.63  48 2.63  18 2.70   8 2.70  24 2.70   2 2.70   4 2.70  20 2.70
                            12 2.70  28 2.70   6 2.70  22 2.70  26 2.70  10 2.70
  45  0.500  0.500  0.500-  36 2.63  37 2.63   1 2.70  26 2.70   6 2.70  29 2.70  16 2.70  23 2.70
                            15 2.70  30 2.70  25 2.70   2 2.70   5 2.70  24 2.70
  46  0.500  0.000  0.500-  38 2.63  39 2.63  15 2.70  30 2.70  27 2.70   4 2.70   2 2.70  25 2.70
                             1 2.70  26 2.70  29 2.70  16 2.70   3 2.70  28 2.70
  47  0.000  0.500  0.500-  40 2.63  41 2.63   3 2.70  28 2.70   6 2.70  29 2.70  16 2.70  23 2.70
                             5 2.70  24 2.70   4 2.70  27 2.70  15 2.70  30 2.70
  48  0.000  0.000  0.500-  43 2.63  44 2.63   5 2.70  24 2.70  25 2.70  27 2.70   2 2.70   4 2.70
                             3 2.70  28 2.70   6 2.70  23 2.70   1 2.70  26 2.70
 
  LATTYP: Found a hexagonal cell.
 ALAT       =     8.1731198103
 C/A-ratio  =     1.2850434344
  
  Lattice vectors:
  
 A1 = (   8.1731198104,   0.0000000000,   0.0000000000)
 A2 = (  -4.0865599052,   7.0781293839,   0.0000000000)
 A3 = (   0.0000000000,   0.0000000000,  10.5028139505)


Analysis of symmetry for initial positions (statically):
=====================================================================
 Subroutine PRICEL returns:
 Original cell was already a primitive cell.
 

 Routine SETGRP: Setting up the symmetry group for a 
 hexagonal supercell.


 Subroutine GETGRP returns: Found 12 space group operations
 (whereof 12 operations were pure point group operations)
 out of a pool of 24 trial point group operations.


The static configuration has the point symmetry D_3d.


Analysis of symmetry for dynamics (positions and initial velocities):
=====================================================================
 Subroutine PRICEL returns:
 Original cell was already a primitive cell.
 

 Routine SETGRP: Setting up the symmetry group for a 
 hexagonal supercell.


 Subroutine GETGRP returns: Found 12 space group operations
 (whereof 12 operations were pure point group operations)
 out of a pool of 24 trial point group operations.


The dynamic configuration has the point symmetry D_3d.


Analysis of structural, dynamic, and magnetic symmetry:
=====================================================================
 Subroutine PRICEL returns:
 Original cell was already a primitive cell.
 

 Routine SETGRP: Setting up the symmetry group for a 
 hexagonal supercell.


 Subroutine GETGRP returns: Found 12 space group operations
 (whereof 12 operations were pure point group operations)
 out of a pool of 24 trial point group operations.


The magnetic configuration has the point symmetry D_3d.


 Subroutine INISYM returns: Found 12 space group operations
 (whereof 12 operations are pure point group operations),
 and found     1 'primitive' translations


----------------------------------------------------------------------------------------

                                     Primitive cell                                     

  volume of cell :     607.5920

  direct lattice vectors                    reciprocal lattice vectors
     8.173119810  0.000000000  0.000000000     0.122352299  0.070640133  0.000000000
    -4.086559905  7.078129384  0.000000000     0.000000000  0.141280266  0.000000000
     0.000000000  0.000000000 10.502813951     0.000000000  0.000000000  0.095212579

  length of vectors
     8.173119810  8.173119810 10.502813951     0.141280266  0.141280266  0.095212579

  position of ions in fractional coordinates (direct lattice)
     0.666666666  0.833333333  0.375000000
     0.333333333  0.166666666  0.625000000
     0.166666666  0.833333333  0.375000000
     0.833333333  0.166666666  0.625000000
     0.166666666  0.333333333  0.375000000
     0.833333333  0.666666666  0.625000000
     0.833333333  0.666666666  0.125000000
     0.166666666  0.333333333  0.875000000
     0.333333333  0.166666666  0.125000000
     0.666666666  0.833333333  0.875000000
     0.833333333  0.166666666  0.125000000
     0.166666666  0.833333333  0.875000000
     0.333333333  0.666666666  0.125000000
     0.666666666  0.333333333  0.875000000
     0.666666666  0.333333333  0.375000000
     0.333333333  0.666666666  0.625000000
     0.666666666  0.833333333  0.125000000
     0.333333313  0.166666666  0.875000000
     0.166666666  0.833333333  0.125000000
     0.833333333  0.166666666  0.875000000
     0.166666666  0.333333333  0.125000000
     0.833333333  0.666666666  0.875000000
     0.833333333  0.666666666  0.375000000
     0.166666666  0.333333333  0.625000000
     0.333333333  0.166666666  0.375000000
     0.666666666  0.833333333  0.625000000
     0.833333333  0.166666666  0.375000000
     0.166666666  0.833333333  0.625000000
     0.333333333  0.666666666  0.375000000
     0.666666666  0.333333333  0.625000000
     0.666666666  0.333333333  0.125000000
     0.333333333  0.666666666  0.875000000
     0.500000000  0.500000000  0.000000000
     0.500000000  0.000000000  0.000000000
     0.000000000  0.500000000  0.000000000
     0.500000000  0.500000000  0.250000000
     0.500000000  0.500000000  0.750000000
     0.500000000  0.000000000  0.250000000
     0.500000000  0.000000000  0.750000000
     0.000000000  0.500000000  0.250000000
     0.000000000  0.500000000  0.750000000
     0.000000000  0.000000000  0.000000000
     0.000000000  0.000000000  0.250000000
     0.000000000  0.000000000  0.750000000
     0.500000000  0.500000000  0.500000000
     0.500000000  0.000000000  0.500000000
     0.000000000  0.500000000  0.500000000
     0.000000000  0.000000000  0.500000000

  ion indices of the primitive-cell ions
   primitive index   ion index
                 1           1
                 2           2
                 3           3
                 4           4
                 5           5
                 6           6
                 7           7
                 8           8
                 9           9
                10          10
                11          11
                12          12
                13          13
                14          14
                15          15
                16          16
                17          17
                18          18
                19          19
                20          20
                21          21
                22          22
                23          23
                24          24
                25          25
                26          26
                27          27
                28          28
                29          29
                30          30
                31          31
                32          32
                33          33
                34          34
                35          35
                36          36
                37          37
                38          38
                39          39
                40          40
                41          41
                42          42
                43          43
                44          44
                45          45
                46          46
                47          47
                48          48

----------------------------------------------------------------------------------------

 
 
 KPOINTS: Auto                                    

Automatic generation of k-mesh.
Space group operators:
 irot       det(A)        alpha          n_x          n_y          n_z        tau_x        tau_y        tau_z
    1     1.000000     0.000000     1.000000     0.000000     0.000000     0.000000     0.000000     0.000000
    2    -1.000000     0.000000     1.000000     0.000000     0.000000     0.000000     0.000000     0.000000
    3     1.000000   120.000000     0.000000     0.000000    -1.000000     0.000000     0.000000     0.000000
    4    -1.000000   120.000000     0.000000     0.000000    -1.000000     0.000000     0.000000     0.000000
    5     1.000000   120.000000     0.000000     0.000000     1.000000     0.000000     0.000000     0.000000
    6    -1.000000   120.000000     0.000000     0.000000     1.000000     0.000000     0.000000     0.000000
    7     1.000000   180.000000     1.000000     0.000000     0.000000     0.000000     0.000000     0.000000
    8    -1.000000   180.000000     1.000000     0.000000     0.000000     0.000000     0.000000     0.000000
    9     1.000000   180.000000     0.500000    -0.866025     0.000000     0.000000     0.000000     0.000000
   10    -1.000000   180.000000     0.500000    -0.866025     0.000000     0.000000     0.000000     0.000000
   11     1.000000   180.000000    -0.500000    -0.866025     0.000000     0.000000     0.000000     0.000000
   12    -1.000000   180.000000    -0.500000    -0.866025     0.000000     0.000000     0.000000     0.000000
 
 Subroutine IBZKPT returns following result:
 ===========================================
 
 Found     69 irreducible k-points:
 
 Following reciprocal coordinates:
            Coordinates               Weight
  0.000000  0.000000  0.000000      1.000000
  0.111111 -0.000000  0.000000      6.000000
  0.222222 -0.000000  0.000000      6.000000
  0.333333 -0.000000  0.000000      6.000000
  0.444444 -0.000000  0.000000      6.000000
  0.111111  0.111111  0.000000      6.000000
  0.222222  0.111111  0.000000     12.000000
  0.333333  0.111111  0.000000     12.000000
  0.444444  0.111111  0.000000      6.000000
  0.222222  0.222222  0.000000      6.000000
  0.333333  0.222222  0.000000     12.000000
  0.333333  0.333333  0.000000      2.000000
  0.000000  0.000000  0.142857      2.000000
  0.111111 -0.000000  0.142857      6.000000
  0.111111 -0.111111  0.142857      6.000000
  0.222222 -0.000000  0.142857      6.000000
  0.222222 -0.222222  0.142857      6.000000
  0.333333 -0.000000  0.142857      6.000000
  0.333333 -0.333333  0.142857      6.000000
  0.444444 -0.000000  0.142857      6.000000
  0.444444 -0.444444  0.142857      6.000000
  0.111111  0.111111  0.142857     12.000000
  0.222222  0.111111  0.142857     12.000000
  0.333333 -0.222222  0.142857     12.000000
  0.333333  0.111111  0.142857     12.000000
  0.444444 -0.333333  0.142857     12.000000
  0.444444  0.111111  0.142857     12.000000
  0.222222  0.222222  0.142857     12.000000
  0.333333  0.222222  0.142857     12.000000
 -0.444444 -0.333333  0.142857     12.000000
  0.333333  0.333333  0.142857      4.000000
  0.000000  0.000000  0.285714      2.000000
  0.111111 -0.000000  0.285714      6.000000
  0.111111 -0.111111  0.285714      6.000000
  0.222222 -0.000000  0.285714      6.000000
  0.222222 -0.222222  0.285714      6.000000
  0.333333 -0.000000  0.285714      6.000000
  0.333333 -0.333333  0.285714      6.000000
  0.444444 -0.000000  0.285714      6.000000
  0.444444 -0.444444  0.285714      6.000000
  0.111111  0.111111  0.285714     12.000000
  0.222222  0.111111  0.285714     12.000000
  0.333333 -0.222222  0.285714     12.000000
  0.333333  0.111111  0.285714     12.000000
  0.444444 -0.333333  0.285714     12.000000
  0.444444  0.111111  0.285714     12.000000
  0.222222  0.222222  0.285714     12.000000
  0.333333  0.222222  0.285714     12.000000
 -0.444444 -0.333333  0.285714     12.000000
  0.333333  0.333333  0.285714      4.000000
  0.000000  0.000000  0.428571      2.000000
  0.111111 -0.000000  0.428571      6.000000
  0.111111 -0.111111  0.428571      6.000000
  0.222222 -0.000000  0.428571      6.000000
  0.222222 -0.222222  0.428571      6.000000
  0.333333 -0.000000  0.428571      6.000000
  0.333333 -0.333333  0.428571      6.000000
  0.444444 -0.000000  0.428571      6.000000
  0.444444 -0.444444  0.428571      6.000000
  0.111111  0.111111  0.428571     12.000000
  0.222222  0.111111  0.428571     12.000000
  0.333333 -0.222222  0.428571     12.000000
  0.333333  0.111111  0.428571     12.000000
  0.444444 -0.333333  0.428571     12.000000
  0.444444  0.111111  0.428571     12.000000
  0.222222  0.222222  0.428571     12.000000
  0.333333  0.222222  0.428571     12.000000
 -0.444444 -0.333333  0.428571     12.000000
  0.333333  0.333333  0.428571      4.000000
 
 Following cartesian coordinates:
            Coordinates               Weight
  0.000000  0.000000  0.000000      1.000000
  0.013595  0.007849  0.000000      6.000000
  0.027189  0.015698  0.000000      6.000000
  0.040784  0.023547  0.000000      6.000000
  0.054379  0.031396  0.000000      6.000000
  0.013595  0.023547  0.000000      6.000000
  0.027189  0.031396  0.000000     12.000000
  0.040784  0.039245  0.000000     12.000000
  0.054379  0.047093  0.000000      6.000000
  0.027189  0.047093  0.000000      6.000000
  0.040784  0.054942  0.000000     12.000000
  0.040784  0.070640  0.000000      2.000000
  0.000000  0.000000  0.013602      2.000000
  0.013595  0.007849  0.013602      6.000000
  0.013595 -0.007849  0.013602      6.000000
  0.027189  0.015698  0.013602      6.000000
  0.027189 -0.015698  0.013602      6.000000
  0.040784  0.023547  0.013602      6.000000
  0.040784 -0.023547  0.013602      6.000000
  0.054379  0.031396  0.013602      6.000000
  0.054379 -0.031396  0.013602      6.000000
  0.013595  0.023547  0.013602     12.000000
  0.027189  0.031396  0.013602     12.000000
  0.040784 -0.007849  0.013602     12.000000
  0.040784  0.039245  0.013602     12.000000
  0.054379 -0.015698  0.013602     12.000000
  0.054379  0.047093  0.013602     12.000000
  0.027189  0.047093  0.013602     12.000000
  0.040784  0.054942  0.013602     12.000000
 -0.054379 -0.078489  0.013602     12.000000
  0.040784  0.070640  0.013602      4.000000
  0.000000  0.000000  0.027204      2.000000
  0.013595  0.007849  0.027204      6.000000
  0.013595 -0.007849  0.027204      6.000000
  0.027189  0.015698  0.027204      6.000000
  0.027189 -0.015698  0.027204      6.000000
  0.040784  0.023547  0.027204      6.000000
  0.040784 -0.023547  0.027204      6.000000
  0.054379  0.031396  0.027204      6.000000
  0.054379 -0.031396  0.027204      6.000000
  0.013595  0.023547  0.027204     12.000000
  0.027189  0.031396  0.027204     12.000000
  0.040784 -0.007849  0.027204     12.000000
  0.040784  0.039245  0.027204     12.000000
  0.054379 -0.015698  0.027204     12.000000
  0.054379  0.047093  0.027204     12.000000
  0.027189  0.047093  0.027204     12.000000
  0.040784  0.054942  0.027204     12.000000
 -0.054379 -0.078489  0.027204     12.000000
  0.040784  0.070640  0.027204      4.000000
  0.000000  0.000000  0.040805      2.000000
  0.013595  0.007849  0.040805      6.000000
  0.013595 -0.007849  0.040805      6.000000
  0.027189  0.015698  0.040805      6.000000
  0.027189 -0.015698  0.040805      6.000000
  0.040784  0.023547  0.040805      6.000000
  0.040784 -0.023547  0.040805      6.000000
  0.054379  0.031396  0.040805      6.000000
  0.054379 -0.031396  0.040805      6.000000
  0.013595  0.023547  0.040805     12.000000
  0.027189  0.031396  0.040805     12.000000
  0.040784 -0.007849  0.040805     12.000000
  0.040784  0.039245  0.040805     12.000000
  0.054379 -0.015698  0.040805     12.000000
  0.054379  0.047093  0.040805     12.000000
  0.027189  0.047093  0.040805     12.000000
  0.040784  0.054942  0.040805     12.000000
 -0.054379 -0.078489  0.040805     12.000000
  0.040784  0.070640  0.040805      4.000000
 


--------------------------------------------------------------------------------------------------------




 Dimension of arrays:
   k-points           NKPTS =     69   k-points in BZ     NKDIM =     69   number of bands    NBANDS=    360
   number of dos      NEDOS =    301   number of ions     NIONS =     48
   non local maximal  LDIM  =      6   non local SUM 2l+1 LMDIM =     18
   total plane-waves  NPLWV = 288000
   max r-space proj   IRMAX =      1   max aug-charges    IRDMAX=  25959
   dimension x,y,z NGX =    60 NGY =   60 NGZ =   80
   dimension x,y,z NGXF=   120 NGYF=  120 NGZF=  160
   support grid    NGXF=   120 NGYF=  120 NGZF=  160
   ions per type =              16  16  15   1
   NGX,Y,Z   is equivalent  to a cutoff of  12.20, 12.20, 12.66 a.u.
   NGXF,Y,Z  is equivalent  to a cutoff of  24.41, 24.41, 25.33 a.u.

 SYSTEM =  MnFeNiGe_mag_hex-scf                    
 POSCAR =  MnFeNiGe_hex                            

 Startparameter for this run:
   NWRITE =      2    write-flag & timer
   PREC   = accura    normal or accurate (medium, high low for compatibility)
   ISTART =      0    job   : 0-new  1-cont  2-samecut
   ICHARG =      2    charge: 1-file 2-atom 10-const
   ISPIN  =      2    spin polarized calculation?
   LNONCOLLINEAR =      F non collinear calculations
   LSORBIT =      F    spin-orbit coupling
   INIWAV =      1    electr: 0-lowe 1-rand  2-diag
   LASPH  =      F    aspherical Exc in radial PAW
   METAGGA=      F    non-selfconsistent MetaGGA calc.

 Electronic Relaxation 1
   ENCUT  =  450.0 eV  33.07 Ry    5.75 a.u.  14.14 14.14 18.17*2*pi/ulx,y,z
   ENINI  =  450.0     initial cutoff
   ENAUG  =  544.6 eV  augmentation charge cutoff
   NELM   =     60;   NELMIN=  5; NELMDL= -5     # of ELM steps 
   EDIFF  = 0.1E-05   stopping-criterion for ELM
   LREAL  =      F    real-space projection
   NLSPLINE    = F    spline interpolate recip. space projectors
   LCOMPAT=      F    compatible to vasp.4.4
   GGA_COMPAT  = T    GGA compatible to vasp.4.4-vasp.4.6
   LMAXPAW     = -100 max onsite density
   LMAXMIX     =    2 max onsite mixed and CHGCAR
   VOSKOWN=      0    Vosko Wilk Nusair interpolation
   ROPT   =    0.00000   0.00000   0.00000   0.00000
 Ionic relaxation
   EDIFFG = 0.1E-04   stopping-criterion for IOM
   NSW    =      0    number of steps for IOM
   NBLOCK =      1;   KBLOCK =      1    inner block; outer block 
   IBRION =     -1    ionic relax: 0-MD 1-quasi-New 2-CG
   NFREE  =      0    steps in history (QN), initial steepest desc. (CG)
   ISIF   =      6    stress and relaxation
   IWAVPR =     10    prediction:  0-non 1-charg 2-wave 3-comb
   ISYM   =      2    0-nonsym 1-usesym 2-fastsym
   LCORR  =      T    Harris-Foulkes like correction to forces

   POTIM  = 0.5000    time-step for ionic-motion
   TEIN   =    0.0    initial temperature
   TEBEG  =    0.0;   TEEND  =   0.0 temperature during run
   SMASS  =  -3.00    Nose mass-parameter (am)
   estimated Nose-frequenzy (Omega)   =  0.10E-29 period in steps = 0.13E+47 mass=  -0.153E-26a.u.
   SCALEE = 1.0000    scale energy and forces
   NPACO  =    256;   APACO  = 16.0  distance and # of slots for P.C.
   PSTRESS=    0.0 pullay stress

  Mass of Ions in am
   POMASS =  58.69 72.61 54.94 55.85
  Ionic Valenz
   ZVAL   =  10.00  4.00  7.00  8.00
  Atomic Wigner-Seitz radii
   RWIGS  =  -1.00 -1.00 -1.00 -1.00
  virtual crystal weights 
   VCA    =   1.00  1.00  1.00  1.00
   NELECT =     337.0000    total number of electrons
   NUPDOWN=      -1.0000    fix difference up-down

 DOS related values:
   EMIN   =  10.00;   EMAX   =-10.00  energy-range for DOS
   EFERMI =   0.00
   ISMEAR =     1;   SIGMA  =   0.20  broadening in eV -4-tet -1-fermi 0-gaus

 Electronic relaxation 2 (details)
   IALGO  =     38    algorithm
   LDIAG  =      T    sub-space diagonalisation (order eigenvalues)
   LSUBROT=      F    optimize rotation matrix (better conditioning)
   TURBO    =      0    0=normal 1=particle mesh
   IRESTART =      0    0=no restart 2=restart with 2 vectors
   NREBOOT  =      0    no. of reboots
   NMIN     =      0    reboot dimension
   EREF     =   0.00    reference energy to select bands
   IMIX   =      4    mixing-type and parameters
     AMIX     =   0.40;   BMIX     =  1.00
     AMIX_MAG =   1.60;   BMIX_MAG =  1.00
     AMIN     =   0.10
     WC   =   100.;   INIMIX=   1;  MIXPRE=   1;  MAXMIX= -45

 Intra band minimization:
   WEIMIN = 0.0000     energy-eigenvalue tresh-hold
   EBREAK =  0.69E-09  absolut break condition
   DEPER  =   0.30     relativ break condition  

   TIME   =   0.40     timestep for ELM

  volume/ion in A,a.u.               =      12.66        85.42
  Fermi-wavevector in a.u.,A,eV,Ry     =   1.345078  2.541829 24.616132  1.809235
  Thomas-Fermi vector in A             =   2.473020
 
 Write flags
   LWAVE        =      F    write WAVECAR
   LDOWNSAMPLE  =      F    k-point downsampling of WAVECAR
   LCHARG       =      T    write CHGCAR
   LVTOT        =      F    write LOCPOT, total local potential
   LVHAR        =      F    write LOCPOT, Hartree potential only
   LELF         =      F    write electronic localiz. function (ELF)
   LORBIT       =     11    0 simple, 1 ext, 2 COOP (PROOUT), +10 PAW based schemes


 Dipole corrections
   LMONO  =      F    monopole corrections only (constant potential shift)
   LDIPOL =      F    correct potential (dipole corrections)
   IDIPOL =      0    1-x, 2-y, 3-z, 4-all directions 
   EPSILON=  1.0000000 bulk dielectric constant

 Exchange correlation treatment:
   GGA     =    --    GGA type
   LEXCH   =     8    internal setting for exchange type
   VOSKOWN=      0    Vosko Wilk Nusair interpolation
   LHFCALC =     F    Hartree Fock is set to
   LHFONE  =     F    Hartree Fock one center treatment
   AEXX    =    0.0000 exact exchange contribution

 Linear response parameters
   LEPSILON=     F    determine dielectric tensor
   LRPA    =     F    only Hartree local field effects (RPA)
   LNABLA  =     F    use nabla operator in PAW spheres
   LVEL    =     F    velocity operator in full k-point grid
   LINTERFAST=   F  fast interpolation
   KINTER  =     0    interpolate to denser k-point grid
   CSHIFT  =0.1000    complex shift for real part using Kramers Kronig
   OMEGAMAX=  -1.0    maximum frequency
   DEG_THRESHOLD= 0.2000000E-02 threshold for treating states as degnerate
   RTIME   =   -0.100 relaxation time in fs
  (WPLASMAI=    0.000 imaginary part of plasma frequency in eV, 0.658/RTIME)
   DFIELD  = 0.0000000 0.0000000 0.0000000 field for delta impulse in time
 
 Orbital magnetization related:
   ORBITALMAG=     F  switch on orbital magnetization
   LCHIMAG   =     F  perturbation theory with respect to B field
   DQ        =  0.001000  dq finite difference perturbation B field
   LLRAUG    =     F  two centre corrections for induced B field



--------------------------------------------------------------------------------------------------------


 Static calculation
 charge density and potential will be updated during run
 spin polarized calculation
 Variant of blocked Davidson
 Davidson routine will perform the subspace rotation
 perform sub-space diagonalisation
    after iterative eigenvector-optimisation
 modified Broyden-mixing scheme, WC =      100.0
 initial mixing is a Kerker type mixing with AMIX =  0.4000 and BMIX =      1.0000
 Hartree-type preconditioning will be used
 using additional bands          191
 reciprocal scheme for non local part
 use partial core corrections
 calculate Harris-corrections to forces 
   (improved forces if not selfconsistent)
 use gradient corrections 
 use of overlap-Matrix (Vanderbilt PP)
 Methfessel and Paxton  Order N= 1 SIGMA  =   0.20


--------------------------------------------------------------------------------------------------------


  energy-cutoff  :      450.00
  volume of cell :      607.59
      direct lattice vectors                 reciprocal lattice vectors
     8.173119810  0.000000000  0.000000000     0.122352299  0.070640133  0.000000000
    -4.086559905  7.078129384  0.000000000     0.000000000  0.141280266  0.000000000
     0.000000000  0.000000000 10.502813951     0.000000000  0.000000000  0.095212579

  length of vectors
     8.173119810  8.173119810 10.502813951     0.141280266  0.141280266  0.095212579


 
 k-points in units of 2pi/SCALE and weight: Auto                                    
   0.00000000  0.00000000  0.00000000       0.002
   0.01359470  0.00784890  0.00000000       0.011
   0.02718940  0.01569781  0.00000000       0.011
   0.04078410  0.02354671  0.00000000       0.011
   0.05437880  0.03139561  0.00000000       0.011
   0.01359470  0.02354671  0.00000000       0.011
   0.02718940  0.03139561  0.00000000       0.021
   0.04078410  0.03924452  0.00000000       0.021
   0.05437880  0.04709342  0.00000000       0.011
   0.02718940  0.04709342  0.00000000       0.011
   0.04078410  0.05494233  0.00000000       0.021
   0.04078410  0.07064013  0.00000000       0.004
   0.00000000  0.00000000  0.01360180       0.004
   0.01359470  0.00784890  0.01360180       0.011
   0.01359470 -0.00784890  0.01360180       0.011
   0.02718940  0.01569781  0.01360180       0.011
   0.02718940 -0.01569781  0.01360180       0.011
   0.04078410  0.02354671  0.01360180       0.011
   0.04078410 -0.02354671  0.01360180       0.011
   0.05437880  0.03139561  0.01360180       0.011
   0.05437880 -0.03139561  0.01360180       0.011
   0.01359470  0.02354671  0.01360180       0.021
   0.02718940  0.03139561  0.01360180       0.021
   0.04078410 -0.00784890  0.01360180       0.021
   0.04078410  0.03924452  0.01360180       0.021
   0.05437880 -0.01569781  0.01360180       0.021
   0.05437880  0.04709342  0.01360180       0.021
   0.02718940  0.04709342  0.01360180       0.021
   0.04078410  0.05494233  0.01360180       0.021
  -0.05437880 -0.07848904  0.01360180       0.021
   0.04078410  0.07064013  0.01360180       0.007
   0.00000000  0.00000000  0.02720359       0.004
   0.01359470  0.00784890  0.02720359       0.011
   0.01359470 -0.00784890  0.02720359       0.011
   0.02718940  0.01569781  0.02720359       0.011
   0.02718940 -0.01569781  0.02720359       0.011
   0.04078410  0.02354671  0.02720359       0.011
   0.04078410 -0.02354671  0.02720359       0.011
   0.05437880  0.03139561  0.02720359       0.011
   0.05437880 -0.03139561  0.02720359       0.011
   0.01359470  0.02354671  0.02720359       0.021
   0.02718940  0.03139561  0.02720359       0.021
   0.04078410 -0.00784890  0.02720359       0.021
   0.04078410  0.03924452  0.02720359       0.021
   0.05437880 -0.01569781  0.02720359       0.021
   0.05437880  0.04709342  0.02720359       0.021
   0.02718940  0.04709342  0.02720359       0.021
   0.04078410  0.05494233  0.02720359       0.021
  -0.05437880 -0.07848904  0.02720359       0.021
   0.04078410  0.07064013  0.02720359       0.007
   0.00000000  0.00000000  0.04080539       0.004
   0.01359470  0.00784890  0.04080539       0.011
   0.01359470 -0.00784890  0.04080539       0.011
   0.02718940  0.01569781  0.04080539       0.011
   0.02718940 -0.01569781  0.04080539       0.011
   0.04078410  0.02354671  0.04080539       0.011
   0.04078410 -0.02354671  0.04080539       0.011
   0.05437880  0.03139561  0.04080539       0.011
   0.05437880 -0.03139561  0.04080539       0.011
   0.01359470  0.02354671  0.04080539       0.021
   0.02718940  0.03139561  0.04080539       0.021
   0.04078410 -0.00784890  0.04080539       0.021
   0.04078410  0.03924452  0.04080539       0.021
   0.05437880 -0.01569781  0.04080539       0.021
   0.05437880  0.04709342  0.04080539       0.021
   0.02718940  0.04709342  0.04080539       0.021
   0.04078410  0.05494233  0.04080539       0.021
  -0.05437880 -0.07848904  0.04080539       0.021
   0.04078410  0.07064013  0.04080539       0.007
 
 k-points in reciprocal lattice and weights: Auto                                    
   0.00000000  0.00000000  0.00000000       0.002
   0.11111111 -0.00000000  0.00000000       0.011
   0.22222222 -0.00000000  0.00000000       0.011
   0.33333333 -0.00000000  0.00000000       0.011
   0.44444444 -0.00000000  0.00000000       0.011
   0.11111111  0.11111111  0.00000000       0.011
   0.22222222  0.11111111  0.00000000       0.021
   0.33333333  0.11111111  0.00000000       0.021
   0.44444444  0.11111111  0.00000000       0.011
   0.22222222  0.22222222  0.00000000       0.011
   0.33333333  0.22222222  0.00000000       0.021
   0.33333333  0.33333333  0.00000000       0.004
   0.00000000  0.00000000  0.14285714       0.004
   0.11111111 -0.00000000  0.14285714       0.011
   0.11111111 -0.11111111  0.14285714       0.011
   0.22222222 -0.00000000  0.14285714       0.011
   0.22222222 -0.22222222  0.14285714       0.011
   0.33333333 -0.00000000  0.14285714       0.011
   0.33333333 -0.33333333  0.14285714       0.011
   0.44444444 -0.00000000  0.14285714       0.011
   0.44444444 -0.44444444  0.14285714       0.011
   0.11111111  0.11111111  0.14285714       0.021
   0.22222222  0.11111111  0.14285714       0.021
   0.33333333 -0.22222222  0.14285714       0.021
   0.33333333  0.11111111  0.14285714       0.021
   0.44444444 -0.33333333  0.14285714       0.021
   0.44444444  0.11111111  0.14285714       0.021
   0.22222222  0.22222222  0.14285714       0.021
   0.33333333  0.22222222  0.14285714       0.021
  -0.44444444 -0.33333333  0.14285714       0.021
   0.33333333  0.33333333  0.14285714       0.007
   0.00000000  0.00000000  0.28571429       0.004
   0.11111111 -0.00000000  0.28571429       0.011
   0.11111111 -0.11111111  0.28571429       0.011
   0.22222222 -0.00000000  0.28571429       0.011
   0.22222222 -0.22222222  0.28571429       0.011
   0.33333333 -0.00000000  0.28571429       0.011
   0.33333333 -0.33333333  0.28571429       0.011
   0.44444444 -0.00000000  0.28571429       0.011
   0.44444444 -0.44444444  0.28571429       0.011
   0.11111111  0.11111111  0.28571429       0.021
   0.22222222  0.11111111  0.28571429       0.021
   0.33333333 -0.22222222  0.28571429       0.021
   0.33333333  0.11111111  0.28571429       0.021
   0.44444444 -0.33333333  0.28571429       0.021
   0.44444444  0.11111111  0.28571429       0.021
   0.22222222  0.22222222  0.28571429       0.021
   0.33333333  0.22222222  0.28571429       0.021
  -0.44444444 -0.33333333  0.28571429       0.021
   0.33333333  0.33333333  0.28571429       0.007
   0.00000000  0.00000000  0.42857143       0.004
   0.11111111 -0.00000000  0.42857143       0.011
   0.11111111 -0.11111111  0.42857143       0.011
   0.22222222 -0.00000000  0.42857143       0.011
   0.22222222 -0.22222222  0.42857143       0.011
   0.33333333 -0.00000000  0.42857143       0.011
   0.33333333 -0.33333333  0.42857143       0.011
   0.44444444 -0.00000000  0.42857143       0.011
   0.44444444 -0.44444444  0.42857143       0.011
   0.11111111  0.11111111  0.42857143       0.021
   0.22222222  0.11111111  0.42857143       0.021
   0.33333333 -0.22222222  0.42857143       0.021
   0.33333333  0.11111111  0.42857143       0.021
   0.44444444 -0.33333333  0.42857143       0.021
   0.44444444  0.11111111  0.42857143       0.021
   0.22222222  0.22222222  0.42857143       0.021
   0.33333333  0.22222222  0.42857143       0.021
  -0.44444444 -0.33333333  0.42857143       0.021
   0.33333333  0.33333333  0.42857143       0.007
 
 position of ions in fractional coordinates (direct lattice) 
   0.66666667  0.83333333  0.37500000
   0.33333333  0.16666667  0.62500000
   0.16666667  0.83333333  0.37500000
   0.83333333  0.16666667  0.62500000
   0.16666667  0.33333333  0.37500000
   0.83333333  0.66666667  0.62500000
   0.83333333  0.66666667  0.12500000
   0.16666667  0.33333333  0.87500000
   0.33333333  0.16666667  0.12500000
   0.66666667  0.83333333  0.87500000
   0.83333333  0.16666667  0.12500000
   0.16666667  0.83333333  0.87500000
   0.33333333  0.66666667  0.12500000
   0.66666667  0.33333333  0.87500000
   0.66666667  0.33333333  0.37500000
   0.33333333  0.66666667  0.62500000
   0.66666667  0.83333333  0.12500000
   0.33333331  0.16666667  0.87500000
   0.16666667  0.83333333  0.12500000
   0.83333333  0.16666667  0.87500000
   0.16666667  0.33333333  0.12500000
   0.83333333  0.66666667  0.87500000
   0.83333333  0.66666667  0.37500000
   0.16666667  0.33333333  0.62500000
   0.33333333  0.16666667  0.37500000
   0.66666667  0.83333333  0.62500000
   0.83333333  0.16666667  0.37500000
   0.16666667  0.83333333  0.62500000
   0.33333333  0.66666667  0.37500000
   0.66666667  0.33333333  0.62500000
   0.66666667  0.33333333  0.12500000
   0.33333333  0.66666667  0.87500000
   0.50000000  0.50000000  0.00000000
   0.50000000  0.00000000  0.00000000
   0.00000000  0.50000000  0.00000000
   0.50000000  0.50000000  0.25000000
   0.50000000  0.50000000  0.75000000
   0.50000000  0.00000000  0.25000000
   0.50000000  0.00000000  0.75000000
   0.00000000  0.50000000  0.25000000
   0.00000000  0.50000000  0.75000000
   0.00000000  0.00000000  0.00000000
   0.00000000  0.00000000  0.25000000
   0.00000000  0.00000000  0.75000000
   0.50000000  0.50000000  0.50000000
   0.50000000  0.00000000  0.50000000
   0.00000000  0.50000000  0.50000000
   0.00000000  0.00000000  0.50000000
 
 position of ions in cartesian coordinates  (Angst):
   2.04327995  5.89844115  3.93855523
   2.04327995  1.17968823  6.56425872
  -2.04327996  5.89844115  3.93855523
   6.12983986  1.17968823  6.56425872
  -0.00000000  2.35937646  3.93855523
   4.08655991  4.71875292  6.56425872
   4.08655991  4.71875292  1.31285174
  -0.00000000  2.35937646  9.18996221
   2.04327995  1.17968823  1.31285174
   2.04327995  5.89844115  9.18996221
   6.12983986  1.17968823  1.31285174
  -2.04327996  5.89844115  9.18996221
   0.00000000  4.71875292  1.31285174
   4.08655990  2.35937646  9.18996221
   4.08655990  2.35937646  3.93855523
   0.00000000  4.71875292  6.56425872
   2.04327995  5.89844115  1.31285174
   2.04327979  1.17968823  9.18996221
  -2.04327996  5.89844115  1.31285174
   6.12983986  1.17968823  9.18996221
  -0.00000000  2.35937646  1.31285174
   4.08655991  4.71875292  9.18996221
   4.08655991  4.71875292  3.93855523
  -0.00000000  2.35937646  6.56425872
   2.04327995  1.17968823  3.93855523
   2.04327995  5.89844115  6.56425872
   6.12983986  1.17968823  3.93855523
  -2.04327996  5.89844115  6.56425872
   0.00000000  4.71875292  3.93855523
   4.08655990  2.35937646  6.56425872
   4.08655990  2.35937646  1.31285174
   0.00000000  4.71875292  9.18996221
   2.04327995  3.53906469  0.00000000
   4.08655991  0.00000000  0.00000000
  -2.04327995  3.53906469  0.00000000
   2.04327995  3.53906469  2.62570349
   2.04327995  3.53906469  7.87711046
   4.08655991  0.00000000  2.62570349
   4.08655991  0.00000000  7.87711046
  -2.04327995  3.53906469  2.62570349
  -2.04327995  3.53906469  7.87711046
   0.00000000  0.00000000  0.00000000
   0.00000000  0.00000000  2.62570349
   0.00000000  0.00000000  7.87711046
   2.04327995  3.53906469  5.25140698
   4.08655991  0.00000000  5.25140698
  -2.04327995  3.53906469  5.25140698
   0.00000000  0.00000000  5.25140698
 


--------------------------------------------------------------------------------------------------------


 k-point   1 :   0.0000 0.0000 0.0000  plane waves:   13159
 k-point   2 :   0.1111-0.0000 0.0000  plane waves:   13135
 k-point   3 :   0.2222-0.0000 0.0000  plane waves:   13143
 k-point   4 :   0.3333-0.0000 0.0000  plane waves:   13148
 k-point   5 :   0.4444-0.0000 0.0000  plane waves:   13172
 k-point   6 :   0.1111 0.1111 0.0000  plane waves:   13154
 k-point   7 :   0.2222 0.1111 0.0000  plane waves:   13153
 k-point   8 :   0.3333 0.1111 0.0000  plane waves:   13188
 k-point   9 :   0.4444 0.1111 0.0000  plane waves:   13186
 k-point  10 :   0.2222 0.2222 0.0000  plane waves:   13178
 k-point  11 :   0.3333 0.2222 0.0000  plane waves:   13204
 k-point  12 :   0.3333 0.3333 0.0000  plane waves:   13230
 k-point  13 :   0.0000 0.0000 0.1429  plane waves:   13147
 k-point  14 :   0.1111-0.0000 0.1429  plane waves:   13160
 k-point  15 :   0.1111-0.1111 0.1429  plane waves:   13160
 k-point  16 :   0.2222-0.0000 0.1429  plane waves:   13136
 k-point  17 :   0.2222-0.2222 0.1429  plane waves:   13136
 k-point  18 :   0.3333-0.0000 0.1429  plane waves:   13153
 k-point  19 :   0.3333-0.3333 0.1429  plane waves:   13153
 k-point  20 :   0.4444-0.0000 0.1429  plane waves:   13174
 k-point  21 :   0.4444-0.4444 0.1429  plane waves:   13174
 k-point  22 :   0.1111 0.1111 0.1429  plane waves:   13130
 k-point  23 :   0.2222 0.1111 0.1429  plane waves:   13148
 k-point  24 :   0.3333-0.2222 0.1429  plane waves:   13148
 k-point  25 :   0.3333 0.1111 0.1429  plane waves:   13179
 k-point  26 :   0.4444-0.3333 0.1429  plane waves:   13179
 k-point  27 :   0.4444 0.1111 0.1429  plane waves:   13173
 k-point  28 :   0.2222 0.2222 0.1429  plane waves:   13194
 k-point  29 :   0.3333 0.2222 0.1429  plane waves:   13185
 k-point  30 :  -0.4444-0.3333 0.1429  plane waves:   13185
 k-point  31 :   0.3333 0.3333 0.1429  plane waves:   13188
 k-point  32 :   0.0000 0.0000 0.2857  plane waves:   13194
 k-point  33 :   0.1111-0.0000 0.2857  plane waves:   13177
 k-point  34 :   0.1111-0.1111 0.2857  plane waves:   13177
 k-point  35 :   0.2222-0.0000 0.2857  plane waves:   13158
 k-point  36 :   0.2222-0.2222 0.2857  plane waves:   13158
 k-point  37 :   0.3333-0.0000 0.2857  plane waves:   13171
 k-point  38 :   0.3333-0.3333 0.2857  plane waves:   13171
 k-point  39 :   0.4444-0.0000 0.2857  plane waves:   13182
 k-point  40 :   0.4444-0.4444 0.2857  plane waves:   13182
 k-point  41 :   0.1111 0.1111 0.2857  plane waves:   13173
 k-point  42 :   0.2222 0.1111 0.2857  plane waves:   13159
 k-point  43 :   0.3333-0.2222 0.2857  plane waves:   13159
 k-point  44 :   0.3333 0.1111 0.2857  plane waves:   13169
 k-point  45 :   0.4444-0.3333 0.2857  plane waves:   13169
 k-point  46 :   0.4444 0.1111 0.2857  plane waves:   13169
 k-point  47 :   0.2222 0.2222 0.2857  plane waves:   13181
 k-point  48 :   0.3333 0.2222 0.2857  plane waves:   13175
 k-point  49 :  -0.4444-0.3333 0.2857  plane waves:   13175
 k-point  50 :   0.3333 0.3333 0.2857  plane waves:   13188
 k-point  51 :   0.0000 0.0000 0.4286  plane waves:   13158
 k-point  52 :   0.1111-0.0000 0.4286  plane waves:   13155
 k-point  53 :   0.1111-0.1111 0.4286  plane waves:   13155
 k-point  54 :   0.2222-0.0000 0.4286  plane waves:   13181
 k-point  55 :   0.2222-0.2222 0.4286  plane waves:   13181
 k-point  56 :   0.3333-0.0000 0.4286  plane waves:   13172
 k-point  57 :   0.3333-0.3333 0.4286  plane waves:   13172
 k-point  58 :   0.4444-0.0000 0.4286  plane waves:   13167
 k-point  59 :   0.4444-0.4444 0.4286  plane waves:   13167
 k-point  60 :   0.1111 0.1111 0.4286  plane waves:   13182
 k-point  61 :   0.2222 0.1111 0.4286  plane waves:   13174
 k-point  62 :   0.3333-0.2222 0.4286  plane waves:   13174
 k-point  63 :   0.3333 0.1111 0.4286  plane waves:   13178
 k-point  64 :   0.4444-0.3333 0.4286  plane waves:   13178
 k-point  65 :   0.4444 0.1111 0.4286  plane waves:   13171
 k-point  66 :   0.2222 0.2222 0.4286  plane waves:   13170
 k-point  67 :   0.3333 0.2222 0.4286  plane waves:   13181
 k-point  68 :  -0.4444-0.3333 0.4286  plane waves:   13181
 k-point  69 :   0.3333 0.3333 0.4286  plane waves:   13179

 maximum and minimum number of plane-waves per node :      2228     2164

 maximum number of plane-waves:     13230
 maximum index in each direction: 
   IXMAX=   14   IYMAX=   14   IZMAX=   18
   IXMIN=  -14   IYMIN=  -14   IZMIN=  -18


 parallel 3D FFT for wavefunctions:
    minimum data exchange during FFTs selected (reduces bandwidth)
 parallel 3D FFT for charge:
    minimum data exchange during FFTs selected (reduces bandwidth)


 total amount of memory used by VASP MPI-rank0   607201. kBytes
=======================================================================

   base      :      30000. kBytes
   nonl-proj :      90098. kBytes
   fftplans  :       4705. kBytes
   grid      :      13171. kBytes
   one-center:        248. kBytes
   wavefun   :     468979. kBytes
 
     INWAV:  cpu time    0.0010: real time    0.0028
 Broyden mixing: mesh for mixing (old mesh)
   NGX = 29   NGY = 29   NGZ = 37
  (NGX  =120   NGY  =120   NGZ  =160)
  gives a total of  31117 points

 initial charge density was supplied:
 charge density of overlapping atoms calculated
 number of electron     337.0000000 magnetization     160.0000000
 keeping initial charge density in first step


--------------------------------------------------------------------------------------------------------


 Maximum index for augmentation-charges         1118 (set IRDMAX)


--------------------------------------------------------------------------------------------------------


 First call to EWALD:  gamma=   0.209
 Maximum number of real-space cells 3x 3x 2
 Maximum number of reciprocal cells 3x 3x 3

    FEWALD:  cpu time    0.0030: real time    0.0195


--------------------------------------- Iteration      1(   1)  ---------------------------------------


    POTLOK:  cpu time    0.2100: real time    0.5883
    SETDIJ:  cpu time    0.0370: real time    0.1602
     EDDAV:  cpu time  346.6613: real time  349.2647
       DOS:  cpu time    0.0430: real time    0.0805
    --------------------------------------------
      LOOP:  cpu time  346.9513: real time  350.0937

 eigenvalue-minimisations  : 99360
 total energy-change (2. order) : 0.2809204E+04  (-0.1086075E+05)
 number of electron     337.0000000 magnetization     160.0000000
 augmentation part      337.0000000 magnetization     160.0000000

 Free energy of the ion-electron system (eV)
  ---------------------------------------------------
  alpha Z        PSCENC =      1580.70775972
  Ewald energy   TEWEN  =    -22503.02888431
  -Hartree energ DENC   =     -6724.48571997
  -exchange      EXHF   =         0.00000000
  -V(xc)+E(xc)   XCENC  =       317.41463143
  PAW double counting   =     23377.83946347   -23998.34197029
  entropy T*S    EENTRO =        -0.00696455
  eigenvalues    EBANDS =      4990.87906051
  atomic energy  EATOM  =     25768.22672671
  Solvation  Ediel_sol  =         0.00000000
  ---------------------------------------------------
  free energy    TOTEN  =      2809.20410272 eV

  energy without entropy =     2809.21106727  energy(sigma->0) =     2809.20642423


--------------------------------------------------------------------------------------------------------




--------------------------------------- Iteration      1(   2)  ---------------------------------------


     EDDAV:  cpu time  346.5403: real time  347.8127
       DOS:  cpu time    0.0520: real time    0.0513
    --------------------------------------------
      LOOP:  cpu time  346.5923: real time  347.8640

 eigenvalue-minimisations  : 99360
 total energy-change (2. order) :-0.2635865E+04  (-0.2350712E+04)
 number of electron     337.0000000 magnetization     160.0000000
 augmentation part      337.0000000 magnetization     160.0000000

 Free energy of the ion-electron system (eV)
  ---------------------------------------------------
  alpha Z        PSCENC =      1580.70775972
  Ewald energy   TEWEN  =    -22503.02888431
  -Hartree energ DENC   =     -6724.48571997
  -exchange      EXHF   =         0.00000000
  -V(xc)+E(xc)   XCENC  =       317.41463143
  PAW double counting   =     23377.83946347   -23998.34197029
  entropy T*S    EENTRO =         0.00324587
  eigenvalues    EBANDS =      2355.00338713
  atomic energy  EATOM  =     25768.22672671
  Solvation  Ediel_sol  =         0.00000000
  ---------------------------------------------------
  free energy    TOTEN  =       173.33863976 eV

  energy without entropy =      173.33539389  energy(sigma->0) =      173.33755780


--------------------------------------------------------------------------------------------------------




--------------------------------------- Iteration      1(   3)  ---------------------------------------


     EDDAV:  cpu time  346.8933: real time  348.1116
       DOS:  cpu time    0.0560: real time    0.0569
    --------------------------------------------
      LOOP:  cpu time  346.9493: real time  348.1685

 eigenvalue-minimisations  : 99504
 total energy-change (2. order) :-0.4368544E+03  (-0.3590010E+03)
 number of electron     337.0000000 magnetization     160.0000000
 augmentation part      337.0000000 magnetization     160.0000000

 Free energy of the ion-electron system (eV)
  ---------------------------------------------------
  alpha Z        PSCENC =      1580.70775972
  Ewald energy   TEWEN  =    -22503.02888431
  -Hartree energ DENC   =     -6724.48571997
  -exchange      EXHF   =         0.00000000
  -V(xc)+E(xc)   XCENC  =       317.41463143
  PAW double counting   =     23377.83946347   -23998.34197029
  entropy T*S    EENTRO =         0.02168302
  eigenvalues    EBANDS =      1918.13056064
  atomic energy  EATOM  =     25768.22672671
  Solvation  Ediel_sol  =         0.00000000
  ---------------------------------------------------
  free energy    TOTEN  =      -263.51574958 eV

  energy without entropy =     -263.53743260  energy(sigma->0) =     -263.52297726


--------------------------------------------------------------------------------------------------------




--------------------------------------- Iteration      1(   4)  ---------------------------------------


     EDDAV:  cpu time  405.3214: real time  406.7874
       DOS:  cpu time    0.0580: real time    0.0598
    --------------------------------------------
      LOOP:  cpu time  405.3794: real time  406.8472

 eigenvalue-minimisations  :121736
 total energy-change (2. order) :-0.3156070E+02  (-0.3015722E+02)
 number of electron     337.0000000 magnetization     160.0000000
 augmentation part      337.0000000 magnetization     160.0000000

 Free energy of the ion-electron system (eV)
  ---------------------------------------------------
  alpha Z        PSCENC =      1580.70775972
  Ewald energy   TEWEN  =    -22503.02888431
  -Hartree energ DENC   =     -6724.48571997
  -exchange      EXHF   =         0.00000000
  -V(xc)+E(xc)   XCENC  =       317.41463143
  PAW double counting   =     23377.83946347   -23998.34197029
  entropy T*S    EENTRO =         0.02935397
  eigenvalues    EBANDS =      1886.56218567
  atomic energy  EATOM  =     25768.22672671
  Solvation  Ediel_sol  =         0.00000000
  ---------------------------------------------------
  free energy    TOTEN  =      -295.07645359 eV

  energy without entropy =     -295.10580756  energy(sigma->0) =     -295.08623825


--------------------------------------------------------------------------------------------------------




--------------------------------------- Iteration      1(   5)  ---------------------------------------


     EDDAV:  cpu time  404.8215: real time  406.2377
       DOS:  cpu time    0.0610: real time    0.0605
    CHARGE:  cpu time    6.3040: real time    6.4016
    MIXING:  cpu time    0.0080: real time    0.0786
    --------------------------------------------
      LOOP:  cpu time  411.1945: real time  412.7785

 eigenvalue-minimisations  :121424
 total energy-change (2. order) :-0.8127906E+00  (-0.8108813E+00)
 number of electron     337.0000054 magnetization     126.2543010
 augmentation part      120.1601739 magnetization     102.3462312

 Broyden mixing:
  rms(total) = 0.10149E+02    rms(broyden)= 0.10149E+02
  rms(prec ) = 0.11071E+02
  weight for this iteration     100.00

 Free energy of the ion-electron system (eV)
  ---------------------------------------------------
  alpha Z        PSCENC =      1580.70775972
  Ewald energy   TEWEN  =    -22503.02888431
  -Hartree energ DENC   =     -6724.48571997
  -exchange      EXHF   =         0.00000000
  -V(xc)+E(xc)   XCENC  =       317.41463143
  PAW double counting   =     23377.83946347   -23998.34197029
  entropy T*S    EENTRO =         0.02952608
  eigenvalues    EBANDS =      1885.74922297
  atomic energy  EATOM  =     25768.22672671
  Solvation  Ediel_sol  =         0.00000000
  ---------------------------------------------------
  free energy    TOTEN  =      -295.88924419 eV

  energy without entropy =     -295.91877027  energy(sigma->0) =     -295.89908622


--------------------------------------------------------------------------------------------------------




--------------------------------------- Iteration      1(   6)  ---------------------------------------


    POTLOK:  cpu time    0.1980: real time    0.1989
    SETDIJ:  cpu time    0.0310: real time    0.0308
     EDDAV:  cpu time  416.4787: real time  417.9310
       DOS:  cpu time    0.0630: real time    0.0629
    CHARGE:  cpu time    5.9741: real time    5.9923
    MIXING:  cpu time    0.0070: real time    0.1123
    --------------------------------------------
[...]
   43        0.021   0.017   2.938   2.976
   44        0.021   0.017   2.938   2.976
   45        0.019   0.018   2.843   2.880
   46        0.019   0.018   2.843   2.880
   47        0.019   0.018   2.843   2.880
   48        0.014   0.007   2.306   2.327
--------------------------------------------------
tot         -0.296  -1.728  47.811  45.788
 
    CHARGE:  cpu time    5.8511: real time    5.8721
    FORLOC:  cpu time    0.0270: real time    0.0352
    FORNL :  cpu time  111.4081: real time  111.8049
    STRESS:  cpu time  193.9055: real time  194.6201
    FORCOR:  cpu time    0.2130: real time    0.2388
    FORHAR:  cpu time    0.0450: real time    0.0527
    MIXING:  cpu time    0.0090: real time    0.0097
    OFIELD:  cpu time    0.0010: real time    0.0051

  FORCE on cell =-STRESS in cart. coord.  units (eV):
  Direction    XX          YY          ZZ          XY          YZ          ZX
  --------------------------------------------------------------------------------------
  Alpha Z  1580.70776  1580.70776  1580.70776
  Ewald   -7282.42840 -7282.42840 -7938.26598    -0.00001     0.00000     0.00000
  Hartree  2128.57712  2128.57712  1997.22675    -0.00000     0.00000    -0.00000
  E(xc)   -1655.32947 -1655.32950 -1658.91590    -0.00003    -0.00000     0.00000
  Local    -689.21565  -689.21652   -20.71944    -0.00074    -0.00000     0.00000
  n-local  -227.63892  -230.29879  -266.94083     1.15953    -0.58220    -0.56912
  augment  3299.32610  3299.32673  3371.47461     0.00055     0.00000    -0.00000
  Kinetic  2847.57594  2846.55547  2935.52407     0.80706    -0.03762     1.05901
  Fock        0.00000     0.00000     0.00000     0.00000     0.00000     0.00000
  -------------------------------------------------------------------------------------
  Total      -0.26582    -0.26582     0.09105     0.00000    -0.00000     0.00000
  in kB      -0.70094    -0.70094     0.24008     0.00000    -0.00000     0.00000
  external pressure =       -0.39 kB  Pullay stress =        0.00 kB


 VOLUME and BASIS-vectors are now :
 -----------------------------------------------------------------------------
  energy-cutoff  :      450.00
  volume of cell :      607.59
      direct lattice vectors                 reciprocal lattice vectors
     8.173119810  0.000000000  0.000000000     0.122352299  0.070640133  0.000000000
    -4.086559905  7.078129384  0.000000000     0.000000000  0.141280266  0.000000000
     0.000000000  0.000000000 10.502813951     0.000000000  0.000000000  0.095212579

  length of vectors
     8.173119810  8.173119810 10.502813951     0.141280266  0.141280266  0.095212579


 FORCES acting on ions
    electron-ion (+dipol)            ewald-force                    non-local-force                 convergence-correction
 -----------------------------------------------------------------------------------------------
   0.121E+02 0.698E+01 0.989E+01   -.121E+02 -.699E+01 -.986E+01   0.441E-01 0.255E-01 -.842E-02   -.200E-01 -.115E-01 -.106E-01
   -.121E+02 -.698E+01 -.989E+01   0.121E+02 0.699E+01 0.986E+01   -.441E-01 -.255E-01 0.842E-02   0.200E-01 0.115E-01 0.106E-01
   -.121E+02 0.698E+01 0.989E+01   0.121E+02 -.699E+01 -.986E+01   -.441E-01 0.255E-01 -.842E-02   0.200E-01 -.115E-01 -.106E-01
   0.121E+02 -.698E+01 -.989E+01   -.121E+02 0.699E+01 0.986E+01   0.441E-01 -.255E-01 0.842E-02   -.200E-01 0.115E-01 0.106E-01
   0.530E-06 -.140E+02 0.989E+01   0.105E-05 0.140E+02 -.986E+01   -.867E-18 -.509E-01 -.842E-02   0.185E-07 0.230E-01 -.106E-01
   -.827E-06 0.140E+02 -.989E+01   -.634E-06 -.140E+02 0.986E+01   0.000E+00 0.509E-01 0.842E-02   -.183E-07 -.230E-01 0.106E-01
   -.741E-06 0.178E+01 0.420E+01   -.634E-06 -.179E+01 -.423E+01   -.141E-17 0.270E-01 0.310E-01   -.643E-08 -.282E-02 -.623E-02
   -.109E-05 -.178E+01 -.420E+01   -.892E-05 0.179E+01 0.423E+01   0.108E-18 -.270E-01 -.310E-01   0.661E-08 0.282E-02 0.623E-02
   -.154E+01 -.892E+00 0.420E+01   0.155E+01 0.897E+00 -.423E+01   -.234E-01 -.135E-01 0.310E-01   0.244E-02 0.141E-02 -.623E-02
   0.154E+01 0.892E+00 -.420E+01   -.155E+01 -.897E+00 0.423E+01   0.234E-01 0.135E-01 -.310E-01   -.244E-02 -.141E-02 0.623E-02
   0.154E+01 -.892E+00 0.420E+01   -.155E+01 0.897E+00 -.423E+01   0.234E-01 -.135E-01 0.310E-01   -.244E-02 0.141E-02 -.623E-02
   -.154E+01 0.892E+00 -.420E+01   0.155E+01 -.897E+00 0.423E+01   -.234E-01 0.135E-01 -.310E-01   0.244E-02 -.141E-02 0.623E-02
   -.739E-06 0.238E-06 0.282E+01   -.634E-06 0.209E-05 -.279E+01   0.217E-18 0.000E+00 -.194E-01   0.363E-08 -.296E-07 -.306E-02
   -.109E-05 -.199E-05 -.282E+01   -.891E-05 -.924E-05 0.279E+01   0.217E-18 0.000E+00 0.194E-01   -.345E-08 0.210E-07 0.306E-02
   0.405E-06 -.620E-06 0.348E+01   0.109E-05 -.121E-06 -.351E+01   -.542E-18 -.542E-18 0.626E-01   0.176E-08 0.842E-08 -.149E-03
   -.733E-06 0.231E-06 -.348E+01   -.634E-06 0.210E-05 0.351E+01   0.542E-19 0.542E-18 -.626E-01   -.144E-08 -.267E-07 0.149E-03
   0.621E+00 0.358E+00 0.167E+01   -.622E+00 -.359E+00 -.169E+01   0.107E-01 0.619E-02 0.268E-02   -.153E-02 -.884E-03 -.213E-02
   -.621E+00 -.358E+00 -.167E+01   0.622E+00 0.359E+00 0.169E+01   -.107E-01 -.619E-02 -.268E-02   0.153E-02 0.884E-03 0.213E-02
   -.621E+00 0.358E+00 0.167E+01   0.622E+00 -.359E+00 -.169E+01   -.107E-01 0.619E-02 0.268E-02   0.153E-02 -.884E-03 -.213E-02
   0.621E+00 -.358E+00 -.167E+01   -.622E+00 0.359E+00 0.169E+01   0.107E-01 -.619E-02 -.268E-02   -.153E-02 0.884E-03 0.213E-02
   0.150E-05 -.717E+00 0.167E+01   0.357E-06 0.718E+00 -.169E+01   -.173E-17 -.124E-01 0.268E-02   0.867E-09 0.177E-02 -.213E-02
   -.147E-05 0.717E+00 -.167E+01   -.615E-06 -.718E+00 0.169E+01   0.000E+00 0.124E-01 -.268E-02   -.749E-09 -.177E-02 0.213E-02
   -.145E-05 0.557E+01 0.393E+01   -.422E-06 -.559E+01 -.394E+01   0.173E-17 0.125E+00 0.890E-01   -.302E-08 -.867E-02 -.388E-02
   0.151E-05 -.557E+01 -.393E+01   0.349E-06 0.559E+01 0.394E+01   -.347E-17 -.125E+00 -.890E-01   0.307E-08 0.867E-02 0.388E-02
   -.482E+01 -.278E+01 0.393E+01   0.484E+01 0.280E+01 -.394E+01   -.108E+00 -.624E-01 0.890E-01   0.751E-02 0.434E-02 -.388E-02
   0.482E+01 0.278E+01 -.393E+01   -.484E+01 -.280E+01 0.394E+01   0.108E+00 0.624E-01 -.890E-01   -.751E-02 -.434E-02 0.388E-02
   0.482E+01 -.278E+01 0.393E+01   -.484E+01 0.280E+01 -.394E+01   0.108E+00 -.624E-01 0.890E-01   -.751E-02 0.434E-02 -.388E-02
   -.482E+01 0.278E+01 -.393E+01   0.484E+01 -.280E+01 0.394E+01   -.108E+00 0.624E-01 -.890E-01   0.751E-02 -.434E-02 0.388E-02
   -.144E-05 0.957E-06 0.140E+01   -.422E-06 0.628E-06 -.141E+01   -.607E-17 0.173E-17 0.653E-02   -.849E-09 -.579E-08 -.652E-03
   0.149E-05 -.856E-06 -.140E+01   0.362E-06 -.590E-06 0.141E+01   0.607E-17 -.173E-17 -.653E-02   0.921E-09 0.410E-08 0.652E-03
   0.150E-05 -.854E-06 0.114E+01   0.359E-06 -.592E-06 -.112E+01   0.173E-17 0.000E+00 0.109E-01   -.392E-09 0.486E-08 -.180E-02
   -.148E-05 0.112E-05 -.114E+01   -.615E-06 0.171E-05 0.112E+01   -.173E-17 0.000E+00 -.109E-01   0.514E-09 -.123E-07 0.180E-02
   0.562E-06 0.284E-06 0.199E-10   0.223E-05 -.708E-06 -.145E-12   -.662E-23 0.000E+00 0.000E+00   -.200E-07 -.124E-10 0.208E-14
   -.298E-06 0.780E-06 -.534E-06   -.348E-05 0.259E-05 -.353E-05   0.000E+00 0.000E+00 0.000E+00   0.974E-10 -.116E-07 0.544E-08
   -.264E-08 0.283E-06 -.336E-10   -.151E-05 -.708E-06 0.731E-14   -.827E-24 0.000E+00 0.000E+00   0.197E-07 -.782E-11 0.455E-11
   0.109E-01 -.631E-02 0.350E+01   -.823E-07 -.708E-06 -.350E+01   -.415E-02 0.240E-02 0.152E-01   -.893E-03 0.515E-03 -.253E-02
   -.109E-01 0.631E-02 -.350E+01   0.223E-05 -.708E-06 0.350E+01   0.415E-02 -.240E-02 -.152E-01   0.893E-03 -.515E-03 0.253E-02
   0.153E-06 0.126E-01 0.350E+01   -.477E-06 -.480E-06 -.350E+01   0.108E-18 -.479E-02 0.152E-01   0.162E-08 -.103E-02 -.253E-02
   -.298E-06 -.126E-01 -.350E+01   -.348E-05 0.259E-05 0.350E+01   0.000E+00 0.479E-02 -.152E-01   -.143E-08 0.103E-02 0.253E-02
   -.109E-01 -.631E-02 0.350E+01   -.668E-06 -.708E-06 -.350E+01   0.415E-02 0.240E-02 0.152E-01   0.893E-03 0.515E-03 -.253E-02
   0.109E-01 0.631E-02 -.350E+01   -.151E-05 -.708E-06 0.350E+01   -.415E-02 -.240E-02 -.152E-01   -.893E-03 -.515E-03 0.253E-02
   -.298E-06 -.213E-06 0.534E-06   -.348E-05 -.401E-05 0.353E-05   0.000E+00 0.000E+00 0.000E+00   0.101E-09 0.116E-07 -.544E-08
   0.150E-06 0.242E-06 0.139E+02   -.477E-06 -.936E-06 -.140E+02   0.813E-19 0.000E+00 0.288E+00   -.245E-09 0.731E-08 -.193E-01
   -.295E-06 -.205E-06 -.139E+02   -.348E-05 -.401E-05 0.140E+02   -.190E-18 0.000E+00 -.288E+00   0.432E-09 0.114E-07 0.193E-01
   0.213E-06 0.284E-06 -.333E-11   -.823E-07 -.708E-06 -.568E-13   0.827E-24 0.000E+00 0.000E+00   -.123E-07 -.461E-11 -.252E-12
   0.154E-06 0.318E-06 0.774E-07   -.477E-06 -.480E-06 0.515E-06   0.331E-23 0.000E+00 0.000E+00   0.852E-10 -.713E-08 -.492E-08
   0.125E-06 0.284E-06 0.562E-11   -.668E-06 -.708E-06 -.533E-13   -.827E-24 0.000E+00 0.000E+00   0.121E-07 -.570E-11 -.294E-11
   0.175E-06 0.285E-06 -.885E-07   -.545E-06 -.107E-05 -.588E-06   -.331E-23 0.000E+00 0.000E+00   0.103E-09 0.831E-08 0.579E-08
 -----------------------------------------------------------------------------------------------
   -.561E-05 0.162E-05 -.803E-07   -.734E-13 -.842E-13 0.124E-12   -.149E-16 0.360E-16 0.000E+00   -.716E-09 0.162E-08 0.101E-08
 
 
 POSITION                                       TOTAL-FORCE (eV/Angst)
 -----------------------------------------------------------------------------------
      2.04328      5.89844      3.93856         0.008473      0.004892      0.008475
      2.04328      1.17969      6.56426        -0.008473     -0.004892     -0.008475
     -2.04328      5.89844      3.93856        -0.008473      0.004892      0.008475
      6.12984      1.17969      6.56426         0.008473     -0.004892     -0.008475
     -0.00000      2.35938      3.93856        -0.000000     -0.009783      0.008475
      4.08656      4.71875      6.56426        -0.000000      0.009783     -0.008475
      4.08656      4.71875      1.31285        -0.000000      0.013568     -0.001331
     -0.00000      2.35938      9.18996        -0.000000     -0.013568      0.001331
      2.04328      1.17969      1.31285        -0.011750     -0.006784     -0.001331
      2.04328      5.89844      9.18996         0.011750      0.006784      0.001331
      6.12984      1.17969      1.31285         0.011750     -0.006784     -0.001331
     -2.04328      5.89844      9.18996        -0.011750      0.006784      0.001331
      0.00000      4.71875      1.31285        -0.000000     -0.000000      0.001794
      4.08656      2.35938      9.18996        -0.000000      0.000000     -0.001794
      4.08656      2.35938      3.93856        -0.000000      0.000000      0.029386
      0.00000      4.71875      6.56426        -0.000000     -0.000000     -0.029386
      2.04328      5.89844      1.31285         0.008547      0.004935     -0.023180
      2.04328      1.17969      9.18996        -0.008547     -0.004935      0.023180
     -2.04328      5.89844      1.31285        -0.008547      0.004935     -0.023180
      6.12984      1.17969      9.18996         0.008547     -0.004935      0.023180
     -0.00000      2.35938      1.31285        -0.000000     -0.009869     -0.023180
      4.08656      4.71875      9.18996        -0.000000      0.009869      0.023180
      4.08656      4.71875      3.93856        -0.000000      0.087846      0.068222
     -0.00000      2.35938      6.56426         0.000000     -0.087846     -0.068222
      2.04328      1.17969      3.93856        -0.076077     -0.043923      0.068222
      2.04328      5.89844      6.56426         0.076077      0.043923     -0.068222
      6.12984      1.17969      3.93856         0.076077     -0.043923      0.068222
     -2.04328      5.89844      6.56426        -0.076077      0.043923     -0.068222
      0.00000      4.71875      3.93856        -0.000000      0.000000     -0.002388
      4.08656      2.35938      6.56426        -0.000000     -0.000000      0.002388
      4.08656      2.35938      1.31285        -0.000000     -0.000000      0.027919
      0.00000      4.71875      9.18996        -0.000000      0.000000     -0.027919
      2.04328      3.53906      0.00000        -0.000000      0.000000     -0.000000
      4.08656      0.00000      0.00000        -0.000000      0.000000     -0.000000
     -2.04328      3.53906      0.00000        -0.000000      0.000000     -0.000000
      2.04328      3.53906      2.62570         0.005883     -0.003397      0.006282
      2.04328      3.53906      7.87711        -0.005883      0.003397     -0.006282
      4.08656      0.00000      2.62570        -0.000000      0.006793      0.006282
      4.08656      0.00000      7.87711        -0.000000     -0.006793     -0.006282
     -2.04328      3.53906      2.62570        -0.005883     -0.003397      0.006282
     -2.04328      3.53906      7.87711         0.005883      0.003397     -0.006282
      0.00000      0.00000      0.00000        -0.000000      0.000000     -0.000000
      0.00000      0.00000      2.62570        -0.000000     -0.000000      0.180029
      0.00000      0.00000      7.87711        -0.000000      0.000000     -0.180029
      2.04328      3.53906      5.25141        -0.000000      0.000000     -0.000000
      4.08656      0.00000      5.25141        -0.000000      0.000000     -0.000000
     -2.04328      3.53906      5.25141        -0.000000      0.000000     -0.000000
      0.00000      0.00000      5.25141        -0.000000      0.000000     -0.000000
 -----------------------------------------------------------------------------------
    total drift:                               -0.000006      0.000002     -0.000000


--------------------------------------------------------------------------------------------------------



  FREE ENERGIE OF THE ION-ELECTRON SYSTEM (eV)
  ---------------------------------------------------
  free  energy   TOTEN  =      -313.17435147 eV

  energy  without entropy=     -313.13195954  energy(sigma->0) =     -313.16022082
 


--------------------------------------------------------------------------------------------------------


    POTLOK:  cpu time    0.2250: real time    0.2516


--------------------------------------------------------------------------------------------------------


     LOOP+:  cpu time15078.0988: real time15137.1101
    4ORBIT:  cpu time    0.0000: real time    0.0000
 


 total charge     
 
# of ion       s       p       d       tot
------------------------------------------
    1        0.470   0.522   8.452   9.444
    2        0.470   0.522   8.452   9.444
    3        0.470   0.522   8.452   9.444
    4        0.470   0.522   8.452   9.444
    5        0.470   0.522   8.452   9.444
    6        0.470   0.522   8.452   9.444
    7        0.471   0.525   8.452   9.448
    8        0.471   0.525   8.452   9.448
    9        0.471   0.525   8.452   9.448
   10        0.471   0.525   8.452   9.448
   11        0.471   0.525   8.452   9.448
   12        0.471   0.525   8.452   9.448
   13        0.471   0.526   8.451   9.448
   14        0.471   0.526   8.451   9.448
   15        0.472   0.524   8.453   9.449
   16        0.472   0.524   8.453   9.449
   17        1.085   1.270   0.125   2.480
   18        1.085   1.270   0.125   2.480
   19        1.085   1.270   0.125   2.480
   20        1.085   1.270   0.125   2.480
   21        1.085   1.270   0.125   2.480
   22        1.085   1.270   0.125   2.480
   23        1.085   1.266   0.125   2.476
   24        1.085   1.266   0.125   2.476
   25        1.085   1.266   0.125   2.476
   26        1.085   1.266   0.125   2.476
   27        1.085   1.266   0.125   2.476
   28        1.085   1.266   0.125   2.476
   29        1.086   1.269   0.125   2.480
   30        1.086   1.269   0.125   2.480
   31        1.085   1.272   0.125   2.481
   32        1.085   1.272   0.125   2.481
   33        0.282   0.325   5.088   5.695
   34        0.282   0.325   5.088   5.695
   35        0.282   0.325   5.088   5.695
   36        0.282   0.325   5.089   5.696
   37        0.282   0.325   5.089   5.696
   38        0.282   0.325   5.089   5.696
   39        0.282   0.325   5.089   5.696
   40        0.282   0.325   5.089   5.696
   41        0.282   0.325   5.089   5.696
   42        0.281   0.324   5.098   5.702
   43        0.281   0.327   5.075   5.683
   44        0.281   0.327   5.075   5.683
   45        0.282   0.326   5.086   5.695
   46        0.282   0.326   5.086   5.695
   47        0.282   0.326   5.086   5.695
   48        0.357   0.424   6.273   7.054
--------------------------------------------------
tot         29.473  33.992 219.807 283.272
 


 magnetization (x)
 
# of ion       s       p       d       tot
------------------------------------------
    1       -0.022  -0.033   0.168   0.113
    2       -0.022  -0.033   0.168   0.113
    3       -0.022  -0.033   0.168   0.113
    4       -0.022  -0.033   0.168   0.113
    5       -0.022  -0.033   0.168   0.113
    6       -0.022  -0.033   0.168   0.113
    7       -0.023  -0.033   0.169   0.113
    8       -0.023  -0.033   0.169   0.113
    9       -0.023  -0.033   0.169   0.113
   10       -0.023  -0.033   0.169   0.113
   11       -0.023  -0.033   0.169   0.113
   12       -0.023  -0.033   0.169   0.113
   13       -0.024  -0.034   0.170   0.113
   14       -0.024  -0.034   0.170   0.113
   15       -0.022  -0.032   0.176   0.122
   16       -0.022  -0.032   0.176   0.122
   17       -0.016  -0.093   0.004  -0.104
   18       -0.016  -0.093   0.004  -0.104
   19       -0.016  -0.093   0.004  -0.104
   20       -0.016  -0.093   0.004  -0.104
   21       -0.016  -0.093   0.004  -0.104
   22       -0.016  -0.093   0.004  -0.104
   23       -0.014  -0.088   0.003  -0.099
   24       -0.014  -0.088   0.003  -0.099
   25       -0.014  -0.088   0.003  -0.099
   26       -0.014  -0.088   0.003  -0.099
   27       -0.014  -0.088   0.003  -0.099
   28       -0.014  -0.088   0.003  -0.099
   29       -0.015  -0.093   0.005  -0.104
   30       -0.015  -0.093   0.005  -0.104
   31       -0.016  -0.095   0.005  -0.107
   32       -0.016  -0.095   0.005  -0.107
   33        0.019   0.017   2.839   2.876
   34        0.019   0.017   2.839   2.876
   35        0.019   0.017   2.839   2.876
   36        0.020   0.017   2.838   2.875
   37        0.020   0.017   2.838   2.875
   38        0.020   0.017   2.838   2.875
   39        0.020   0.017   2.838   2.875
   40        0.020   0.017   2.838   2.875
   41        0.020   0.017   2.838   2.875
   42        0.018   0.017   2.773   2.808
   43        0.021   0.017   2.938   2.976
   44        0.021   0.017   2.938   2.976
   45        0.019   0.018   2.843   2.880
   46        0.019   0.018   2.843   2.880
   47        0.019   0.018   2.843   2.880
   48        0.014   0.007   2.306   2.327
--------------------------------------------------
tot         -0.296  -1.728  47.811  45.788
 

 total amount of memory used by VASP MPI-rank0   607201. kBytes
=======================================================================

   base      :      30000. kBytes
   nonl-proj :      90098. kBytes
   fftplans  :       4705. kBytes
   grid      :      13171. kBytes
   one-center:        248. kBytes
   wavefun   :     468979. kBytes
 
  
  
 General timing and accounting informations for this job:
 ========================================================
  
                  Total CPU time used (sec):    15354.147
                            User time (sec):    15195.188
                          System time (sec):      158.960
                         Elapsed time (sec):    15421.376
  
                   Maximum memory used (kb):      864300.
                   Average memory used (kb):           0.
  
                          Minor page faults:        74616
                          Major page faults:          578
                 Voluntary context switches:         8020
