 running on   24 total cores
 distrk:  each k-point on   24 cores,    1 groups
 distr:  one band on    6 cores,    4 groups
 using from now: INCAR     
 vasp.6.1.1 19Jun20 (build Nov 30 2020 11:51:22) complex                        
  
 POSCAR found type information on POSCAR MnNiGeFe
 POSCAR found :  4 types and      48 ions
 scaLAPACK will be used
 -----------------------------------------------------------------------------
|                                                                             |
|               ----> ADVICE to this user running VASP <----                  |
|                                                                             |
|     You have a (more or less) 'large supercell' and for larger cells it     |
|     might be more efficient to use real-space projection operators.         |
|     Therefore, try LREAL= Auto in the INCAR file.                           |
|     Mind: For very accurate calculation, you might also keep the            |
|     reciprocal projection scheme (i.e. LREAL=.FALSE.).                      |
|                                                                             |
 -----------------------------------------------------------------------------

 LDA part: xc-table for Pade appr. of Perdew
 POSCAR, INCAR and KPOINTS ok, starting setup
 FFT: planning ...
 WAVECAR not read
 entering main loop
       N       E                     dE             d eps       ncg     rms          rms(c)
DAV:   1     0.280310855934E+04    0.28031E+04   -0.10925E+05 86400   0.104E+03
DAV:   2     0.171363349393E+03   -0.26317E+04   -0.23442E+04 86400   0.265E+02
DAV:   3    -0.268657758633E+03   -0.44002E+03   -0.36336E+03 86512   0.124E+02
DAV:   4    -0.299817326701E+03   -0.31160E+02   -0.29924E+02106248   0.390E+01
DAV:   5    -0.300614697898E+03   -0.79737E+00   -0.79570E+00103888   0.647E+00    0.102E+02
DAV:   6    -0.379843487607E+03   -0.79229E+02   -0.23331E+02109248   0.111E+02    0.116E+02
DAV:   7    -0.306341996361E+03    0.73501E+02   -0.18540E+02106072   0.899E+01    0.699E+01
DAV:   8    -0.333951206899E+03   -0.27609E+02   -0.49756E+01117376   0.567E+01    0.898E+01
DAV:   9    -0.316254364000E+03    0.17697E+02   -0.42302E+01123000   0.424E+01    0.479E+01
DAV:  10    -0.317320379743E+03   -0.10660E+01   -0.33355E+01116304   0.550E+01    0.650E+01
DAV:  11    -0.300928478301E+03    0.16392E+02   -0.18943E+01136584   0.399E+01    0.290E+01
DAV:  12    -0.310499727522E+03   -0.95712E+01   -0.93365E+00124280   0.270E+01    0.337E+01
DAV:  13    -0.308396835303E+03    0.21029E+01   -0.55387E+00123744   0.251E+01    0.149E+01
DAV:  14    -0.314922188545E+03   -0.65254E+01   -0.47605E+00136568   0.216E+01    0.278E+01
DAV:  15    -0.312883414953E+03    0.20388E+01   -0.52271E+00124560   0.187E+01    0.100E+01
DAV:  16    -0.313030162366E+03   -0.14675E+00   -0.12355E+00135320   0.853E+00    0.759E+00
DAV:  17    -0.312989979414E+03    0.40183E-01   -0.58529E-01115344   0.596E+00    0.499E+00
DAV:  18    -0.313139385580E+03   -0.14941E+00   -0.27105E-01119048   0.391E+00    0.407E+00
DAV:  19    -0.313154141675E+03   -0.14756E-01   -0.17591E-01115152   0.436E+00    0.311E+00
DAV:  20    -0.313120969415E+03    0.33172E-01   -0.83268E-02129160   0.263E+00    0.132E+00
DAV:  21    -0.313129162243E+03   -0.81928E-02   -0.44912E-02135368   0.120E+00    0.127E+00
DAV:  22    -0.313127527799E+03    0.16344E-02   -0.19138E-02113016   0.113E+00    0.101E+00
DAV:  23    -0.313133074721E+03   -0.55469E-02   -0.55022E-03124272   0.385E-01    0.124E+00
DAV:  24    -0.313134036018E+03   -0.96130E-03   -0.18323E-03124312   0.443E-01    0.123E+00
DAV:  25    -0.313131698063E+03    0.23380E-02   -0.13240E-03130384   0.398E-01    0.995E-01
DAV:  26    -0.313129576673E+03    0.21214E-02   -0.18320E-03141296   0.310E-01    0.578E-01
DAV:  27    -0.313129685923E+03   -0.10925E-03   -0.89379E-04133152   0.236E-01    0.493E-01
DAV:  28    -0.313129773959E+03   -0.88036E-04   -0.34141E-04125424   0.156E-01    0.389E-01
DAV:  29    -0.313129743200E+03    0.30758E-04   -0.19261E-04143960   0.779E-02    0.276E-01
DAV:  30    -0.313129784939E+03   -0.41739E-04   -0.85552E-05129744   0.901E-02    0.222E-01
DAV:  31    -0.313129847441E+03   -0.62502E-04   -0.88049E-05151136   0.672E-02    0.124E-01
DAV:  32    -0.313129869649E+03   -0.22207E-04   -0.50808E-05152096   0.381E-02    0.896E-02
DAV:  33    -0.313129871782E+03   -0.21334E-05   -0.18159E-05113672   0.375E-02    0.653E-02
DAV:  34    -0.313129874982E+03   -0.31994E-05   -0.10394E-05126608   0.137E-02    0.403E-02
DAV:  35    -0.313129876553E+03   -0.15712E-05   -0.51331E-06 83680   0.145E-02    0.289E-02
DAV:  36    -0.313129877797E+03   -0.12442E-05   -0.22599E-06 68600   0.126E-02    0.158E-02
DAV:  37    -0.313129878931E+03   -0.11342E-05   -0.14432E-06 60888   0.662E-03    0.626E-03
DAV:  38    -0.313129879145E+03   -0.21385E-06   -0.19016E-06 61496   0.561E-03
   1 F= -.31312988E+03 E0= -.31314904E+03  d E =0.574841E-01  mag=    46.4990
