 vasp.6.1.1 19Jun20 (build Nov 30 2020 11:51:22) complex                        
  
 executed on             LinuxIFC date 2021.03.26  15:55:53
 running on   24 total cores
 distrk:  each k-point on   24 cores,    1 groups
 distr:  one band on NCORE=   6 cores,    4 groups


--------------------------------------------------------------------------------------------------------


 INCAR:
 POTCAR:    PAW_PBE Mn 06Sep2000                  
 POTCAR:    PAW_PBE Ni 02Aug2007                  
 POTCAR:    PAW_PBE Ge 05Jan2001                  
 POTCAR:    PAW_PBE Fe 06Sep2000                  
 POTCAR:    PAW_PBE Mn 06Sep2000                  
   SHA256 =  791c87526310ff945dc83749a51ee60ee299d345ff72743aeb14609b9ed68bfc Mn/POTCAR             
   COPYR  = (c) Copyright 06Sep2000 Georg Kresse                                                    
   COPYR  = This file is part of the software VASP. Any use, copying, and all other rights are regul
   COPYR  = If you do not have a valid VASP license, you may not use, copy or distribute this file. 
   VRHFIN =Mn: d6 s1                                                                                
   LEXCH  = PE                                                                                      
   EATOM  =   416.7541 eV,   30.6306 Ry                                                             
                                                                                                    
   TITEL  = PAW_PBE Mn 06Sep2000                                                                    
   LULTRA =        F    use ultrasoft PP ?                                                          
   IUNSCR =        1    unscreen: 0-lin 1-nonlin 2-no                                               
   RPACOR =    2.000    partial core radius                                                         
   POMASS =   54.938; ZVAL   =    7.000    mass and valenz                                          
   RCORE  =    2.300    outmost cutoff radius                                                       
   RWIGS  =    2.500; RWIGS  =    1.323    wigner-seitz radius (au A)                               
   ENMAX  =  269.864; ENMIN  =  202.398 eV                                                          
   RCLOC  =    1.725    cutoff for local pot                                                        
   LCOR   =        T    correct aug charges                                                         
   LPAW   =        T    paw PP                                                                      
   EAUG   =  500.711                                                                                
   DEXC   =    0.000                                                                                
   RMAX   =    2.343    core radius for proj-oper                                                   
   RAUG   =    1.300    factor for augmentation sphere                                              
   RDEP   =    2.338    radius for radial grids                                                     
   RDEPT  =    1.911    core radius for aug-charge                                                  
                                                                                                    
   Atomic configuration                                                                             
    9 entries                                                                                       
     n  l   j            E        occ.                                                              
     1  0  0.50     -6424.8288   2.0000                                                             
     2  0  0.50      -739.1154   2.0000                                                             
     2  1  1.50      -625.3949   6.0000                                                             
     3  0  0.50       -81.6100   2.0000                                                             
     3  1  1.50       -50.4667   6.0000                                                             
     3  2  2.50        -3.3745   6.0000                                                             
     4  0  0.50        -4.1331   1.0000                                                             
     4  1  0.50        -4.0817   0.0000                                                             
     4  3  2.50        -1.3606   0.0000                                                             
   Description                                                                                      
     l       E           TYP  RCUT    TYP  RCUT                                                     
     2     -3.3744664     23  2.300                                                                 
     2     -4.7350490     23  2.300                                                                 
     0     -4.1331408     23  2.300                                                                 
     0      7.6656614     23  2.300                                                                 
     1     -2.7211652     23  2.300                                                                 
     1     20.4087390     23  2.300                                                                 
  local pseudopotential read in
  partial core-charges read in
  partial kinetic energy density read in
  atomic valenz-charges read in
  non local Contribution for L=           2  read in
    real space projection operators read in
  non local Contribution for L=           2  read in
    real space projection operators read in
  non local Contribution for L=           0  read in
    real space projection operators read in
  non local Contribution for L=           0  read in
    real space projection operators read in
  non local Contribution for L=           1  read in
    real space projection operators read in
  non local Contribution for L=           1  read in
    real space projection operators read in
    PAW grid and wavefunctions read in
 
   number of l-projection  operators is LMAX  =           6
   number of lm-projection operators is LMMAX =          18
 
 POTCAR:    PAW_PBE Ni 02Aug2007                  
   SHA256 =  0534bc51ca8003dfef23f56753fef9fdd3e22eac8d719fccacb59f3e6b7a69c7 Ni/POTCAR             
   COPYR  = (c) Copyright 02Aug2007 Georg Kresse                                                    
   COPYR  = This file is part of the software VASP. Any use, copying, and all other rights are regul
   COPYR  = If you do not have a valid VASP license, you may not use, copy or distribute this file. 
   VRHFIN =Ni:                                                                                      
   LEXCH  = PE                                                                                      
   EATOM  =  1077.6739 eV,   79.2068 Ry                                                             
                                                                                                    
   TITEL  = PAW_PBE Ni 02Aug2007                                                                    
   LULTRA =        F    use ultrasoft PP ?                                                          
   IUNSCR =        1    unscreen: 0-lin 1-nonlin 2-no                                               
   RPACOR =    2.000    partial core radius                                                         
   POMASS =   58.690; ZVAL   =   10.000    mass and valenz                                          
   RCORE  =    2.300    outmost cutoff radius                                                       
   RWIGS  =    2.430; RWIGS  =    1.286    wigner-seitz radius (au A)                               
   ENMAX  =  269.532; ENMIN  =  202.149 eV                                                          
   RCLOC  =    1.201    cutoff for local pot                                                        
   LCOR   =        T    correct aug charges                                                         
   LPAW   =        T    paw PP                                                                      
   EAUG   =  544.565                                                                                
   DEXC   =    0.000                                                                                
   RMAX   =    2.357    core radius for proj-oper                                                   
   RAUG   =    1.300    factor for augmentation sphere                                              
   RDEP   =    2.390    radius for radial grids                                                     
   RDEPT  =    1.838    core radius for aug-charge                                                  
                                                                                                    
   Atomic configuration                                                                             
    9 entries                                                                                       
     n  l   j            E        occ.                                                              
     1  0  0.50     -8206.4253   2.0000                                                             
     2  0  0.50      -976.1748   2.0000                                                             
     2  1  1.50      -839.0571   6.0000                                                             
     3  0  0.50      -105.9991   2.0000                                                             
     3  1  1.50       -66.4603   6.0000                                                             
     3  2  2.50        -4.6458   9.0000                                                             
     4  0  0.50        -4.4926   1.0000                                                             
     4  1  1.50        -4.0817   0.0000                                                             
     4  3  2.50        -1.3606   0.0000                                                             
   Description                                                                                      
     l       E           TYP  RCUT    TYP  RCUT                                                     
     2     -4.6457903     23  2.300                                                                 
     2     -6.0063729     23  2.300                                                                 
     0     -4.4925590     23  2.300                                                                 
     0      5.0102601     23  2.300                                                                 
     1     -2.7211652     23  2.300                                                                 
     1     16.5183231     23  2.300                                                                 
  local pseudopotential read in
  partial core-charges read in
  partial kinetic energy density read in
  atomic valenz-charges read in
  non local Contribution for L=           2  read in
    real space projection operators read in
  non local Contribution for L=           2  read in
    real space projection operators read in
  non local Contribution for L=           0  read in
    real space projection operators read in
  non local Contribution for L=           0  read in
    real space projection operators read in
  non local Contribution for L=           1  read in
    real space projection operators read in
  non local Contribution for L=           1  read in
    real space projection operators read in
    PAW grid and wavefunctions read in
 
   number of l-projection  operators is LMAX  =           6
   number of lm-projection operators is LMMAX =          18
 
 POTCAR:    PAW_PBE Ge 05Jan2001                  
   SHA256 =  7ff11deedcda39f1950abeda971a84a1f98a719a97bc9679a0df455c008734f8 Ge/POTCAR             
   COPYR  = (c) Copyright 05Jan2001 Georg Kresse                                                    
   COPYR  = This file is part of the software VASP. Any use, copying, and all other rights are regul
   COPYR  = If you do not have a valid VASP license, you may not use, copy or distribute this file. 
   VRHFIN =Ge: s2p2                                                                                 
   LEXCH  = PE                                                                                      
   EATOM  =   104.9960 eV,    7.7170 Ry                                                             
                                                                                                    
   TITEL  = PAW_PBE Ge 05Jan2001                                                                    
   LULTRA =        F    use ultrasoft PP ?                                                          
   IUNSCR =        1    unscreen: 0-lin 1-nonlin 2-no                                               
   RPACOR =    2.170    partial core radius                                                         
   POMASS =   72.610; ZVAL   =    4.000    mass and valenz                                          
   RCORE  =    2.300    outmost cutoff radius                                                       
   RWIGS  =    2.300; RWIGS  =    1.217    wigner-seitz radius (au A)                               
   ENMAX  =  173.807; ENMIN  =  130.355 eV                                                          
   ICORE  =        3    local potential                                                             
   LCOR   =        T    correct aug charges                                                         
   LPAW   =        T    paw PP                                                                      
   EAUG   =  385.843                                                                                
   DEXC   =    0.000                                                                                
   RMAX   =    2.342    core radius for proj-oper                                                   
   RAUG   =    1.300    factor for augmentation sphere                                              
   RDEP   =    2.318    radius for radial grids                                                     
   RDEPT  =    2.103    core radius for aug-charge                                                  
                                                                                                    
   Atomic configuration                                                                             
   10 entries                                                                                       
     n  l   j            E        occ.                                                              
     1  0  0.50    -10959.8463   2.0000                                                             
     2  0  0.50     -1371.6056   2.0000                                                             
     2  1  1.50     -1198.4791   6.0000                                                             
     3  0  0.50      -168.4733   2.0000                                                             
     3  1  1.50      -115.6019   6.0000                                                             
     3  2  2.50       -29.3106  10.0000                                                             
     4  0  0.50       -11.7309   2.0000                                                             
     4  1  0.50        -3.8952   2.0000                                                             
     4  2  1.50        -4.0817   0.0000                                                             
     4  3  2.50        -4.0817   0.0000                                                             
   Description                                                                                      
     l       E           TYP  RCUT    TYP  RCUT                                                     
     0    -11.7309493     23  2.300                                                                 
     0     -7.4578696     23  2.300                                                                 
     1     -3.8952261     23  2.300                                                                 
     1      6.1178114     23  2.300                                                                 
     2     -4.0817478     23  2.300                                                                 
     3     -1.3605826      7  2.300                                                                 
  local pseudopotential read in
  partial core-charges read in
  partial kinetic energy density read in
  atomic valenz-charges read in
  non local Contribution for L=           0  read in
    real space projection operators read in
  non local Contribution for L=           0  read in
    real space projection operators read in
  non local Contribution for L=           1  read in
    real space projection operators read in
  non local Contribution for L=           1  read in
    real space projection operators read in
  non local Contribution for L=           2  read in
    real space projection operators read in
    PAW grid and wavefunctions read in
 
   number of l-projection  operators is LMAX  =           5
   number of lm-projection operators is LMMAX =          13
 
 POTCAR:    PAW_PBE Fe 06Sep2000                  
   SHA256 =  cd5a22d9368cc8b5cc476bea79732366149640da08ac9009b0e1b7fc627eea28 Fe/POTCAR             
   COPYR  = (c) Copyright 06Sep2000 Georg Kresse                                                    
   COPYR  = This file is part of the software VASP. Any use, copying, and all other rights are regul
   COPYR  = If you do not have a valid VASP license, you may not use, copy or distribute this file. 
   VRHFIN =Fe:  d7 s1                                                                               
   LEXCH  = PE                                                                                      
   EATOM  =   594.3153 eV,   43.6809 Ry                                                             
                                                                                                    
   TITEL  = PAW_PBE Fe 06Sep2000                                                                    
   LULTRA =        F    use ultrasoft PP ?                                                          
   IUNSCR =        1    unscreen: 0-lin 1-nonlin 2-no                                               
   RPACOR =    2.000    partial core radius                                                         
   POMASS =   55.847; ZVAL   =    8.000    mass and valenz                                          
   RCORE  =    2.300    outmost cutoff radius                                                       
   RWIGS  =    2.460; RWIGS  =    1.302    wigner-seitz radius (au A)                               
   ENMAX  =  267.882; ENMIN  =  200.911 eV                                                          
   RCLOC  =    1.701    cutoff for local pot                                                        
   LCOR   =        T    correct aug charges                                                         
   LPAW   =        T    paw PP                                                                      
   EAUG   =  511.368                                                                                
   DEXC   =    0.000                                                                                
   RMAX   =    2.356    core radius for proj-oper                                                   
   RAUG   =    1.300    factor for augmentation sphere                                              
   RDEP   =    2.442    radius for radial grids                                                     
   RDEPT  =    1.890    core radius for aug-charge                                                  
                                                                                                    
   Atomic configuration                                                                             
    9 entries                                                                                       
     n  l   j            E        occ.                                                              
     1  0  0.50     -6993.8440   2.0000                                                             
     2  0  0.50      -814.6047   2.0000                                                             
     2  1  1.50      -693.3689   6.0000                                                             
     3  0  0.50       -89.4732   2.0000                                                             
     3  1  1.50       -55.6373   6.0000                                                             
     3  2  2.50        -3.8151   7.0000                                                             
     4  0  0.50        -4.2551   1.0000                                                             
     4  1  1.50        -3.4015   0.0000                                                             
     4  3  2.50        -1.3606   0.0000                                                             
   Description                                                                                      
     l       E           TYP  RCUT    TYP  RCUT                                                     
     2     -3.8151135     23  2.300                                                                 
     2     -5.1756961     23  2.300                                                                 
     0     -4.2550963     23  2.300                                                                 
     0      7.2035603     23  2.300                                                                 
     1     -2.7211652     23  2.300                                                                 
     1     18.4316424     23  2.300                                                                 
  local pseudopotential read in
  partial core-charges read in
  partial kinetic energy density read in
  atomic valenz-charges read in
  non local Contribution for L=           2  read in
    real space projection operators read in
  non local Contribution for L=           2  read in
    real space projection operators read in
  non local Contribution for L=           0  read in
    real space projection operators read in
  non local Contribution for L=           0  read in
    real space projection operators read in
  non local Contribution for L=           1  read in
    real space projection operators read in
  non local Contribution for L=           1  read in
    real space projection operators read in
    PAW grid and wavefunctions read in
 
   number of l-projection  operators is LMAX  =           6
   number of lm-projection operators is LMMAX =          18
 
 -----------------------------------------------------------------------------
|                                                                             |
|               ----> ADVICE to this user running VASP <----                  |
|                                                                             |
|     You have a (more or less) 'large supercell' and for larger cells it     |
|     might be more efficient to use real-space projection operators.         |
|     Therefore, try LREAL= Auto in the INCAR file.                           |
|     Mind: For very accurate calculation, you might also keep the            |
|     reciprocal projection scheme (i.e. LREAL=.FALSE.).                      |
|                                                                             |
 -----------------------------------------------------------------------------

  PAW_PBE Mn 06Sep2000                  :
 energy of atom  1       EATOM= -416.7541
 kinetic energy error for atom=    0.0033 (will be added to EATOM!!)
  PAW_PBE Ni 02Aug2007                  :
 energy of atom  2       EATOM=-1077.6739
 kinetic energy error for atom=    0.0038 (will be added to EATOM!!)
  PAW_PBE Ge 05Jan2001                  :
 energy of atom  3       EATOM= -104.9960
 kinetic energy error for atom=    0.0003 (will be added to EATOM!!)
  PAW_PBE Fe 06Sep2000                  :
 energy of atom  4       EATOM= -594.3153
 kinetic energy error for atom=    0.0034 (will be added to EATOM!!)
 
 
 POSCAR: MnNiGe_orth
  positions in direct lattice
  velocities in cartesian coordinates
 exchange correlation table for  LEXCH =        8
   RHO(1)=    0.500       N(1)  =     2000
   RHO(2)=  100.500       N(2)  =     4000
 


--------------------------------------------------------------------------------------------------------


 ion  position               nearest neighbor table
   1  0.242  0.250  0.178-  41 2.47  45 2.47  32 2.52  44 2.71  40 2.71  16 2.74  18 2.74  29 2.81
                            25 2.81  24 2.87  28 2.87  14 3.12  10 3.12   7 3.16   3 3.16
   2  0.242  0.750  0.178-  41 2.47  45 2.47  33 2.52  44 2.71  40 2.71  17 2.74  19 2.74  29 2.81
                            25 2.81  24 2.87  28 2.87  14 3.12  10 3.12   8 3.16   4 3.16
   3  0.492  0.250  0.322-  42 2.47  46 2.47  34 2.52  45 2.71  41 2.71  18 2.74  20 2.74  30 2.81
                            26 2.81  25 2.87  29 2.87  11 3.12  48 3.12   1 3.16   5 3.16
   4  0.492  0.750  0.322-  42 2.47  46 2.47  35 2.52  45 2.71  41 2.71  19 2.74  21 2.74  30 2.81
                            26 2.81  25 2.87  29 2.87  11 3.12  48 3.12   2 3.16   6 3.16
   5  0.742  0.250  0.178-  43 2.47  47 2.47  36 2.52  46 2.71  42 2.71  20 2.74  22 2.74  31 2.81
                            27 2.81  26 2.87  30 2.87  15 3.12  12 3.12   7 3.16   3 3.16
   6  0.742  0.750  0.178-  43 2.47  47 2.47  37 2.52  46 2.71  42 2.71  21 2.74  23 2.74  31 2.81
                            27 2.81  26 2.87  30 2.87  15 3.12  12 3.12   8 3.16   4 3.16
   7  0.992  0.250  0.322-  40 2.47  44 2.47  38 2.52  43 2.71  47 2.71  22 2.74  16 2.74  28 2.81
                            24 2.81  31 2.87  27 2.87  13 3.12   9 3.12   1 3.16   5 3.16
   8  0.992  0.750  0.322-  40 2.47  44 2.47  39 2.52  43 2.71  47 2.71  23 2.74  17 2.74  28 2.81
                            24 2.81  31 2.87  27 2.87  13 3.12   9 3.12   2 3.16   6 3.16
   9  0.008  0.000  0.678-  38 2.47  39 2.47  40 2.52  33 2.71  32 2.71  24 2.74  27 2.74  23 2.81
                            22 2.81  17 2.87  16 2.87   8 3.12   7 3.12  10 3.16  12 3.16
  10  0.258  0.000  0.822-  32 2.47  33 2.47  41 2.52  35 2.71  34 2.71  25 2.74  24 2.74  17 2.81
                            16 2.81  19 2.87  18 2.87   2 3.12   1 3.12  11 3.16   9 3.16
  11  0.508  0.000  0.678-  34 2.47  35 2.47  42 2.52  37 2.71  36 2.71  26 2.74  25 2.74  19 2.81
                            18 2.81  21 2.87  20 2.87   4 3.12   3 3.12  10 3.16  12 3.16
  12  0.758  0.000  0.822-  36 2.47  37 2.47  43 2.52  39 2.71  38 2.71  27 2.74  26 2.74  21 2.81
                            20 2.81  23 2.87  22 2.87   6 3.12   5 3.12  11 3.16   9 3.16
  13  0.008  0.500  0.678-  38 2.47  39 2.47  44 2.52  33 2.71  32 2.71  28 2.74  31 2.74  23 2.81
                            22 2.81  17 2.87  16 2.87   8 3.12   7 3.12  14 3.16  15 3.16
  14  0.258  0.500  0.822-  32 2.47  33 2.47  45 2.52  35 2.71  34 2.71  29 2.74  28 2.74  17 2.81
                            16 2.81  19 2.87  18 2.87   2 3.12   1 3.12  13 3.16
  15  0.758  0.500  0.822-  36 2.47  37 2.47  47 2.52  39 2.71  38 2.71  31 2.74  30 2.74  21 2.81
                            20 2.81  23 2.87  22 2.87   6 3.12   5 3.12  13 3.16
  16  0.177  0.250  0.553-  40 2.30  44 2.30  32 2.36  34 2.43  25 2.66  29 2.66   1 2.74   7 2.74
                            10 2.81  14 2.81  13 2.87   9 2.87
  17  0.177  0.750  0.553-  40 2.30  44 2.30  33 2.36  35 2.43  25 2.66  29 2.66   2 2.74   8 2.74
                            10 2.81  14 2.81  13 2.87   9 2.87
  18  0.427  0.250  0.947-  41 2.30  45 2.30  34 2.36  36 2.43  26 2.66  30 2.66   3 2.74   1 2.74
                            11 2.81  48 2.81  14 2.87  10 2.87
  19  0.427  0.750  0.947-  41 2.30  45 2.30  35 2.36  37 2.43  26 2.66  30 2.66   4 2.74   2 2.74
                            11 2.81  48 2.81  14 2.87  10 2.87
  20  0.677  0.250  0.553-  42 2.30  46 2.30  36 2.36  38 2.43  27 2.66  31 2.66   5 2.74   3 2.74
                            12 2.81  15 2.81  11 2.87  48 2.87
  21  0.677  0.750  0.553-  42 2.30  46 2.30  37 2.36  39 2.43  27 2.66  31 2.66   6 2.74   4 2.74
                            12 2.81  15 2.81  11 2.87  48 2.87
  22  0.927  0.250  0.947-  43 2.30  47 2.30  38 2.36  32 2.43  24 2.66  28 2.66   7 2.74   5 2.74
                             9 2.81  13 2.81  12 2.87  15 2.87
  23  0.927  0.750  0.947-  43 2.30  47 2.30  39 2.36  33 2.43  24 2.66  28 2.66   8 2.74   6 2.74
                             9 2.81  13 2.81  12 2.87  15 2.87
  24  0.073  0.000  0.053-  32 2.30  33 2.30  40 2.36  43 2.43  22 2.66  23 2.66   9 2.74  10 2.74
                             7 2.81   8 2.81   1 2.87   2 2.87
  25  0.323  0.000  0.447-  34 2.30  35 2.30  41 2.36  40 2.43  16 2.66  17 2.66  10 2.74  11 2.74
                             1 2.81   2 2.81   3 2.87   4 2.87
  26  0.573  0.000  0.053-  36 2.30  37 2.30  42 2.36  41 2.43  18 2.66  19 2.66  11 2.74  12 2.74
                             3 2.81   4 2.81   5 2.87   6 2.87
  27  0.823  0.000  0.447-  38 2.30  39 2.30  43 2.36  42 2.43  20 2.66  21 2.66  12 2.74   9 2.74
                             5 2.81   6 2.81   7 2.87   8 2.87
  28  0.073  0.500  0.053-  32 2.30  33 2.30  44 2.36  47 2.43  22 2.66  23 2.66  13 2.74  14 2.74
                             7 2.81   8 2.81   1 2.87   2 2.87
  29  0.323  0.500  0.447-  34 2.30  35 2.30  45 2.36  44 2.43  16 2.66  17 2.66  14 2.74  48 2.74
                             1 2.81   2 2.81   3 2.87   4 2.87
  30  0.573  0.500  0.053-  36 2.30  37 2.30  46 2.36  45 2.43  18 2.66  19 2.66  48 2.74  15 2.74
                             3 2.81   4 2.81   5 2.87   6 2.87
  31  0.823  0.500  0.447-  38 2.30  39 2.30  47 2.36  46 2.43  20 2.66  21 2.66  15 2.74  13 2.74
                             5 2.81   6 2.81   7 2.87   8 2.87
  32  0.125  0.250  0.878-  24 2.30  28 2.30  16 2.36  22 2.43  10 2.47  14 2.47   1 2.52  13 2.71
                             9 2.71
  33  0.125  0.750  0.878-  24 2.30  28 2.30  17 2.36  23 2.43  10 2.47  14 2.47   2 2.52  13 2.71
                             9 2.71
  34  0.375  0.250  0.622-  25 2.30  29 2.30  18 2.36  16 2.43  11 2.47  48 2.47   3 2.52  14 2.71
                            10 2.71
  35  0.375  0.750  0.622-  25 2.30  29 2.30  19 2.36  17 2.43  11 2.47  48 2.47   4 2.52  14 2.71
                            10 2.71
  36  0.625  0.250  0.878-  26 2.30  30 2.30  20 2.36  18 2.43  12 2.47  15 2.47   5 2.52  11 2.71
                            48 2.71
  37  0.625  0.750  0.878-  26 2.30  30 2.30  21 2.36  19 2.43  12 2.47  15 2.47   6 2.52  11 2.71
                            48 2.71
  38  0.875  0.250  0.622-  27 2.30  31 2.30  22 2.36  20 2.43   9 2.47  13 2.47   7 2.52  12 2.71
                            15 2.71
  39  0.875  0.750  0.622-  27 2.30  31 2.30  23 2.36  21 2.43   9 2.47  13 2.47   8 2.52  12 2.71
                            15 2.71
  40  0.125  0.000  0.378-  16 2.30  17 2.30  24 2.36  25 2.43   7 2.47   8 2.47   9 2.52   2 2.71
                             1 2.71
  41  0.375  0.000  0.122-  18 2.30  19 2.30  25 2.36  26 2.43   1 2.47   2 2.47  10 2.52   4 2.71
                             3 2.71
  42  0.625  0.000  0.378-  20 2.30  21 2.30  26 2.36  27 2.43   3 2.47   4 2.47  11 2.52   6 2.71
                             5 2.71
  43  0.875  0.000  0.122-  22 2.30  23 2.30  27 2.36  24 2.43   5 2.47   6 2.47  12 2.52   8 2.71
                             7 2.71
  44  0.125  0.500  0.378-  16 2.30  17 2.30  28 2.36  29 2.43   7 2.47   8 2.47  13 2.52   2 2.71
                             1 2.71
  45  0.375  0.500  0.122-  18 2.30  19 2.30  29 2.36  30 2.43   1 2.47   2 2.47  14 2.52   4 2.71
                             3 2.71
  46  0.625  0.500  0.378-  20 2.30  21 2.30  30 2.36  31 2.43   3 2.47   4 2.47  48 2.52   6 2.71
                             5 2.71
  47  0.875  0.500  0.122-  22 2.30  23 2.30  31 2.36  28 2.43   5 2.47   6 2.47  15 2.52   8 2.71
                             7 2.71
  48  0.508  0.500  0.678-  34 2.47  35 2.47  46 2.52  37 2.71  36 2.71  30 2.74  29 2.74  19 2.81
                            18 2.81  21 2.87  20 2.87   4 3.12   3 3.12
 
  LATTYP: Found a simple orthorhombic cell.
 ALAT       =     7.0094186489
 B/A-ratio  =     1.0555008508
 C/A-ratio  =     1.7085169161
  
  Lattice vectors:
  
 A1 = (   0.0000000000,   0.0000000000,  -7.0094186489)
 A2 = (   0.0000000000,  -7.3984473474,   0.0000000000)
 A3 = ( -11.9757103333,   0.0000000000,   0.0000000000)


Analysis of symmetry for initial positions (statically):
=====================================================================
 Subroutine PRICEL returns:
 Original cell was already a primitive cell.
 

 Routine SETGRP: Setting up the symmetry group for a 
 simple orthorhombic supercell.


 Subroutine GETGRP returns: Found  2 space group operations
 (whereof  2 operations were pure point group operations)
 out of a pool of  8 trial point group operations.


The static configuration has the point symmetry C_1h.


Analysis of symmetry for dynamics (positions and initial velocities):
=====================================================================
 Subroutine PRICEL returns:
 Original cell was already a primitive cell.
 

 Routine SETGRP: Setting up the symmetry group for a 
 simple orthorhombic supercell.


 Subroutine GETGRP returns: Found  2 space group operations
 (whereof  2 operations were pure point group operations)
 out of a pool of  8 trial point group operations.


The dynamic configuration has the point symmetry C_1h.


Analysis of structural, dynamic, and magnetic symmetry:
=====================================================================
 Subroutine PRICEL returns:
 Original cell was already a primitive cell.
 

 Routine SETGRP: Setting up the symmetry group for a 
 simple orthorhombic supercell.


 Subroutine GETGRP returns: Found  2 space group operations
 (whereof  2 operations were pure point group operations)
 out of a pool of  8 trial point group operations.


The magnetic configuration has the point symmetry C_1h.


 Subroutine INISYM returns: Found  2 space group operations
 (whereof  2 operations are pure point group operations),
 and found     1 'primitive' translations


----------------------------------------------------------------------------------------

                                     Primitive cell                                     

  volume of cell :     621.0461

  direct lattice vectors                    reciprocal lattice vectors
    11.975710333  0.000000000  0.000000000     0.083502354  0.000000000  0.000000000
     0.000000000  7.398447347  0.000000000     0.000000000  0.135163495  0.000000000
     0.000000000  0.000000000  7.009418649     0.000000000  0.000000000  0.142665184

  length of vectors
    11.975710333  7.398447347  7.009418649     0.083502354  0.135163495  0.142665184

  position of ions in fractional coordinates (direct lattice)
     0.241899997  0.250000000  0.178299993
     0.241899997  0.750000000  0.178299993
     0.491899997  0.250000000  0.321700007
     0.491899997  0.750000000  0.321700007
     0.741900027  0.250000000  0.178299993
     0.741900027  0.750000000  0.178299993
     0.991900027  0.250000000  0.321700007
     0.991900027  0.750000000  0.321700007
     0.008100000  0.000000000  0.678300023
     0.258100003  0.000000000  0.821699977
     0.508099973  0.000000000  0.678300023
     0.758099973  0.000000000  0.821699977
     0.008100000  0.500000000  0.678300023
     0.258100003  0.500000000  0.821699977
     0.758099973  0.500000000  0.821699977
     0.176699996  0.250000000  0.553300023
     0.176699996  0.750000000  0.553300023
     0.426699996  0.250000000  0.946699977
     0.426699996  0.750000000  0.946699977
     0.676699996  0.250000000  0.553300023
     0.676699996  0.750000000  0.553300023
     0.926699996  0.250000000  0.946699977
     0.926699996  0.750000000  0.946699977
     0.073299997  0.000000000  0.053300001
     0.323300004  0.000000000  0.446700007
     0.573300004  0.000000000  0.053300001
     0.823300004  0.000000000  0.446700007
     0.073299997  0.500000000  0.053300001
     0.323300004  0.500000000  0.446700007
     0.573300004  0.500000000  0.053300001
     0.823300004  0.500000000  0.446700007
     0.125249997  0.250000000  0.878300011
     0.125249997  0.750000000  0.878300011
     0.375250012  0.250000000  0.621699989
     0.375250012  0.750000000  0.621699989
     0.625249982  0.250000000  0.878300011
     0.625249982  0.750000000  0.878300011
     0.875249982  0.250000000  0.621699989
     0.875249982  0.750000000  0.621699989
     0.124750003  0.000000000  0.378300011
     0.374749988  0.000000000  0.121699996
     0.624750018  0.000000000  0.378300011
     0.874750018  0.000000000  0.121699996
     0.124750003  0.500000000  0.378300011
     0.374749988  0.500000000  0.121699996
     0.624750018  0.500000000  0.378300011
     0.874750018  0.500000000  0.121699996
     0.508099973  0.500000000  0.678300023

  ion indices of the primitive-cell ions
   primitive index   ion index
                 1           1
                 2           2
                 3           3
                 4           4
                 5           5
                 6           6
                 7           7
                 8           8
                 9           9
                10          10
                11          11
                12          12
                13          13
                14          14
                15          15
                16          16
                17          17
                18          18
                19          19
                20          20
                21          21
                22          22
                23          23
                24          24
                25          25
                26          26
                27          27
                28          28
                29          29
                30          30
                31          31
                32          32
                33          33
                34          34
                35          35
                36          36
                37          37
                38          38
                39          39
                40          40
                41          41
                42          42
                43          43
                44          44
                45          45
                46          46
                47          47
                48          48

----------------------------------------------------------------------------------------

 
 
 KPOINTS: Auto                                    

Automatic generation of k-mesh.
Space group operators:
 irot       det(A)        alpha          n_x          n_y          n_z        tau_x        tau_y        tau_z
    1     1.000000     0.000000     1.000000     0.000000     0.000000     0.000000     0.000000     0.000000
    2    -1.000000   180.000000     0.000000     1.000000     0.000000     0.000000     0.000000     0.000000
 
 Subroutine IBZKPT returns following result:
 ===========================================
 
 Found     60 irreducible k-points:
 
 Following reciprocal coordinates:
            Coordinates               Weight
  0.000000  0.000000  0.000000      1.000000
  0.250000  0.000000  0.000000      2.000000
  0.500000  0.000000  0.000000      1.000000
  0.000000  0.142857  0.000000      2.000000
  0.250000  0.142857  0.000000      4.000000
  0.500000  0.142857  0.000000      2.000000
  0.000000  0.285714  0.000000      2.000000
  0.250000  0.285714  0.000000      4.000000
  0.500000  0.285714  0.000000      2.000000
  0.000000  0.428571  0.000000      2.000000
  0.250000  0.428571  0.000000      4.000000
  0.500000  0.428571  0.000000      2.000000
  0.000000  0.000000  0.142857      2.000000
  0.250000  0.000000  0.142857      2.000000
 -0.250000  0.000000  0.142857      2.000000
  0.500000  0.000000  0.142857      2.000000
  0.000000  0.142857  0.142857      4.000000
  0.250000  0.142857  0.142857      4.000000
 -0.250000 -0.142857  0.142857      4.000000
  0.500000  0.142857  0.142857      4.000000
  0.000000  0.285714  0.142857      4.000000
  0.250000  0.285714  0.142857      4.000000
 -0.250000 -0.285714  0.142857      4.000000
  0.500000  0.285714  0.142857      4.000000
  0.000000  0.428571  0.142857      4.000000
  0.250000  0.428571  0.142857      4.000000
 -0.250000 -0.428571  0.142857      4.000000
  0.500000  0.428571  0.142857      4.000000
  0.000000  0.000000  0.285714      2.000000
  0.250000  0.000000  0.285714      2.000000
 -0.250000  0.000000  0.285714      2.000000
  0.500000  0.000000  0.285714      2.000000
  0.000000  0.142857  0.285714      4.000000
  0.250000  0.142857  0.285714      4.000000
 -0.250000 -0.142857  0.285714      4.000000
  0.500000  0.142857  0.285714      4.000000
  0.000000  0.285714  0.285714      4.000000
  0.250000  0.285714  0.285714      4.000000
 -0.250000 -0.285714  0.285714      4.000000
  0.500000  0.285714  0.285714      4.000000
  0.000000  0.428571  0.285714      4.000000
  0.250000  0.428571  0.285714      4.000000
 -0.250000 -0.428571  0.285714      4.000000
  0.500000  0.428571  0.285714      4.000000
  0.000000  0.000000  0.428571      2.000000
  0.250000  0.000000  0.428571      2.000000
 -0.250000  0.000000  0.428571      2.000000
  0.500000  0.000000  0.428571      2.000000
  0.000000  0.142857  0.428571      4.000000
  0.250000  0.142857  0.428571      4.000000
 -0.250000 -0.142857  0.428571      4.000000
  0.500000  0.142857  0.428571      4.000000
  0.000000  0.285714  0.428571      4.000000
  0.250000  0.285714  0.428571      4.000000
 -0.250000 -0.285714  0.428571      4.000000
  0.500000  0.285714  0.428571      4.000000
  0.000000  0.428571  0.428571      4.000000
  0.250000  0.428571  0.428571      4.000000
 -0.250000 -0.428571  0.428571      4.000000
  0.500000  0.428571  0.428571      4.000000
 
 Following cartesian coordinates:
            Coordinates               Weight
  0.000000  0.000000  0.000000      1.000000
  0.020771  0.000000  0.000000      2.000000
  0.041542  0.000000  0.000000      1.000000
  0.000000  0.019213  0.000000      2.000000
  0.020771  0.019213  0.000000      4.000000
  0.041542  0.019213  0.000000      2.000000
  0.000000  0.038425  0.000000      2.000000
  0.020771  0.038425  0.000000      4.000000
  0.041542  0.038425  0.000000      2.000000
  0.000000  0.057638  0.000000      2.000000
  0.020771  0.057638  0.000000      4.000000
  0.041542  0.057638  0.000000      2.000000
  0.000000  0.000000  0.020279      2.000000
  0.020771  0.000000  0.020279      2.000000
 -0.020771  0.000000  0.020279      2.000000
  0.041542  0.000000  0.020279      2.000000
  0.000000  0.019213  0.020279      4.000000
  0.020771  0.019213  0.020279      4.000000
 -0.020771 -0.019213  0.020279      4.000000
  0.041542  0.019213  0.020279      4.000000
  0.000000  0.038425  0.020279      4.000000
  0.020771  0.038425  0.020279      4.000000
 -0.020771 -0.038425  0.020279      4.000000
  0.041542  0.038425  0.020279      4.000000
  0.000000  0.057638  0.020279      4.000000
  0.020771  0.057638  0.020279      4.000000
 -0.020771 -0.057638  0.020279      4.000000
  0.041542  0.057638  0.020279      4.000000
  0.000000  0.000000  0.040558      2.000000
  0.020771  0.000000  0.040558      2.000000
 -0.020771  0.000000  0.040558      2.000000
  0.041542  0.000000  0.040558      2.000000
  0.000000  0.019213  0.040558      4.000000
  0.020771  0.019213  0.040558      4.000000
 -0.020771 -0.019213  0.040558      4.000000
  0.041542  0.019213  0.040558      4.000000
  0.000000  0.038425  0.040558      4.000000
  0.020771  0.038425  0.040558      4.000000
 -0.020771 -0.038425  0.040558      4.000000
  0.041542  0.038425  0.040558      4.000000
  0.000000  0.057638  0.040558      4.000000
  0.020771  0.057638  0.040558      4.000000
 -0.020771 -0.057638  0.040558      4.000000
  0.041542  0.057638  0.040558      4.000000
  0.000000  0.000000  0.060837      2.000000
  0.020771  0.000000  0.060837      2.000000
 -0.020771  0.000000  0.060837      2.000000
  0.041542  0.000000  0.060837      2.000000
  0.000000  0.019213  0.060837      4.000000
  0.020771  0.019213  0.060837      4.000000
 -0.020771 -0.019213  0.060837      4.000000
  0.041542  0.019213  0.060837      4.000000
  0.000000  0.038425  0.060837      4.000000
  0.020771  0.038425  0.060837      4.000000
 -0.020771 -0.038425  0.060837      4.000000
  0.041542  0.038425  0.060837      4.000000
  0.000000  0.057638  0.060837      4.000000
  0.020771  0.057638  0.060837      4.000000
 -0.020771 -0.057638  0.060837      4.000000
  0.041542  0.057638  0.060837      4.000000
 


--------------------------------------------------------------------------------------------------------




 Dimension of arrays:
   k-points           NKPTS =     60   k-points in BZ     NKDIM =     60   number of bands    NBANDS=    360
   number of dos      NEDOS =    301   number of ions     NIONS =     48
   non local maximal  LDIM  =      6   non local SUM 2l+1 LMDIM =     18
   total plane-waves  NPLWV = 217728
   max r-space proj   IRMAX =      1   max aug-charges    IRDMAX=  19252
   dimension x,y,z NGX =    84 NGY =   54 NGZ =   48
   dimension x,y,z NGXF=   168 NGYF=  108 NGZF=   96
   support grid    NGXF=   168 NGYF=  108 NGZF=   96
   ions per type =              15  16  16   1
   NGX,Y,Z   is equivalent  to a cutoff of  11.66, 12.13, 11.38 a.u.
   NGXF,Y,Z  is equivalent  to a cutoff of  23.32, 24.27, 22.77 a.u.

 SYSTEM =  MnFeNiGe_mag_orth-scf                   
 POSCAR =  MnNiGe_orth                             

 Startparameter for this run:
   NWRITE =      2    write-flag & timer
   PREC   = accura    normal or accurate (medium, high low for compatibility)
   ISTART =      0    job   : 0-new  1-cont  2-samecut
   ICHARG =      2    charge: 1-file 2-atom 10-const
   ISPIN  =      2    spin polarized calculation?
   LNONCOLLINEAR =      F non collinear calculations
   LSORBIT =      F    spin-orbit coupling
   INIWAV =      1    electr: 0-lowe 1-rand  2-diag
   LASPH  =      F    aspherical Exc in radial PAW
   METAGGA=      F    non-selfconsistent MetaGGA calc.

 Electronic Relaxation 1
   ENCUT  =  450.0 eV  33.07 Ry    5.75 a.u.  20.71 12.80 12.12*2*pi/ulx,y,z
   ENINI  =  450.0     initial cutoff
   ENAUG  =  544.6 eV  augmentation charge cutoff
   NELM   =     60;   NELMIN=  5; NELMDL= -5     # of ELM steps 
   EDIFF  = 0.1E-05   stopping-criterion for ELM
   LREAL  =      F    real-space projection
   NLSPLINE    = F    spline interpolate recip. space projectors
   LCOMPAT=      F    compatible to vasp.4.4
   GGA_COMPAT  = T    GGA compatible to vasp.4.4-vasp.4.6
   LMAXPAW     = -100 max onsite density
   LMAXMIX     =    2 max onsite mixed and CHGCAR
   VOSKOWN=      0    Vosko Wilk Nusair interpolation
   ROPT   =    0.00000   0.00000   0.00000   0.00000
 Ionic relaxation
   EDIFFG = 0.1E-04   stopping-criterion for IOM
   NSW    =      0    number of steps for IOM
   NBLOCK =      1;   KBLOCK =      1    inner block; outer block 
   IBRION =     -1    ionic relax: 0-MD 1-quasi-New 2-CG
   NFREE  =      0    steps in history (QN), initial steepest desc. (CG)
   ISIF   =      6    stress and relaxation
   IWAVPR =     10    prediction:  0-non 1-charg 2-wave 3-comb
   ISYM   =      2    0-nonsym 1-usesym 2-fastsym
   LCORR  =      T    Harris-Foulkes like correction to forces

   POTIM  = 0.5000    time-step for ionic-motion
   TEIN   =    0.0    initial temperature
   TEBEG  =    0.0;   TEEND  =   0.0 temperature during run
   SMASS  =  -3.00    Nose mass-parameter (am)
   estimated Nose-frequenzy (Omega)   =  0.10E-29 period in steps = 0.13E+47 mass=  -0.328E-26a.u.
   SCALEE = 1.0000    scale energy and forces
   NPACO  =    256;   APACO  = 16.0  distance and # of slots for P.C.
   PSTRESS=    0.0 pullay stress

  Mass of Ions in am
   POMASS =  54.94 58.69 72.61 55.85
  Ionic Valenz
   ZVAL   =   7.00 10.00  4.00  8.00
  Atomic Wigner-Seitz radii
   RWIGS  =  -1.00 -1.00 -1.00 -1.00
  virtual crystal weights 
   VCA    =   1.00  1.00  1.00  1.00
   NELECT =     337.0000    total number of electrons
   NUPDOWN=      -1.0000    fix difference up-down

 DOS related values:
   EMIN   =  10.00;   EMAX   =-10.00  energy-range for DOS
   EFERMI =   0.00
   ISMEAR =     1;   SIGMA  =   0.20  broadening in eV -4-tet -1-fermi 0-gaus

 Electronic relaxation 2 (details)
   IALGO  =     38    algorithm
   LDIAG  =      T    sub-space diagonalisation (order eigenvalues)
   LSUBROT=      F    optimize rotation matrix (better conditioning)
   TURBO    =      0    0=normal 1=particle mesh
   IRESTART =      0    0=no restart 2=restart with 2 vectors
   NREBOOT  =      0    no. of reboots
   NMIN     =      0    reboot dimension
   EREF     =   0.00    reference energy to select bands
   IMIX   =      4    mixing-type and parameters
     AMIX     =   0.40;   BMIX     =  1.00
     AMIX_MAG =   1.60;   BMIX_MAG =  1.00
     AMIN     =   0.10
     WC   =   100.;   INIMIX=   1;  MIXPRE=   1;  MAXMIX= -45

 Intra band minimization:
   WEIMIN = 0.0000     energy-eigenvalue tresh-hold
   EBREAK =  0.69E-09  absolut break condition
   DEPER  =   0.30     relativ break condition  

   TIME   =   0.40     timestep for ELM

  volume/ion in A,a.u.               =      12.94        87.31
  Fermi-wavevector in a.u.,A,eV,Ry     =   1.335294  2.523339 24.259318  1.783010
  Thomas-Fermi vector in A             =   2.464009
 
 Write flags
   LWAVE        =      F    write WAVECAR
   LDOWNSAMPLE  =      F    k-point downsampling of WAVECAR
   LCHARG       =      T    write CHGCAR
   LVTOT        =      F    write LOCPOT, total local potential
   LVHAR        =      F    write LOCPOT, Hartree potential only
   LELF         =      F    write electronic localiz. function (ELF)
   LORBIT       =     11    0 simple, 1 ext, 2 COOP (PROOUT), +10 PAW based schemes


 Dipole corrections
   LMONO  =      F    monopole corrections only (constant potential shift)
   LDIPOL =      F    correct potential (dipole corrections)
   IDIPOL =      0    1-x, 2-y, 3-z, 4-all directions 
   EPSILON=  1.0000000 bulk dielectric constant

 Exchange correlation treatment:
   GGA     =    --    GGA type
   LEXCH   =     8    internal setting for exchange type
   VOSKOWN=      0    Vosko Wilk Nusair interpolation
   LHFCALC =     F    Hartree Fock is set to
   LHFONE  =     F    Hartree Fock one center treatment
   AEXX    =    0.0000 exact exchange contribution

 Linear response parameters
   LEPSILON=     F    determine dielectric tensor
   LRPA    =     F    only Hartree local field effects (RPA)
   LNABLA  =     F    use nabla operator in PAW spheres
   LVEL    =     F    velocity operator in full k-point grid
   LINTERFAST=   F  fast interpolation
   KINTER  =     0    interpolate to denser k-point grid
   CSHIFT  =0.1000    complex shift for real part using Kramers Kronig
   OMEGAMAX=  -1.0    maximum frequency
   DEG_THRESHOLD= 0.2000000E-02 threshold for treating states as degnerate
   RTIME   =   -0.100 relaxation time in fs
  (WPLASMAI=    0.000 imaginary part of plasma frequency in eV, 0.658/RTIME)
   DFIELD  = 0.0000000 0.0000000 0.0000000 field for delta impulse in time
 
 Orbital magnetization related:
   ORBITALMAG=     F  switch on orbital magnetization
   LCHIMAG   =     F  perturbation theory with respect to B field
   DQ        =  0.001000  dq finite difference perturbation B field
   LLRAUG    =     F  two centre corrections for induced B field



--------------------------------------------------------------------------------------------------------


 Static calculation
 charge density and potential will be updated during run
 spin polarized calculation
 Variant of blocked Davidson
 Davidson routine will perform the subspace rotation
 perform sub-space diagonalisation
    after iterative eigenvector-optimisation
 modified Broyden-mixing scheme, WC =      100.0
 initial mixing is a Kerker type mixing with AMIX =  0.4000 and BMIX =      1.0000
 Hartree-type preconditioning will be used
 using additional bands          191
 reciprocal scheme for non local part
 use partial core corrections
 calculate Harris-corrections to forces 
   (improved forces if not selfconsistent)
 use gradient corrections 
 use of overlap-Matrix (Vanderbilt PP)
 Methfessel and Paxton  Order N= 1 SIGMA  =   0.20


--------------------------------------------------------------------------------------------------------


  energy-cutoff  :      450.00
  volume of cell :      621.05
      direct lattice vectors                 reciprocal lattice vectors
    11.975710333  0.000000000  0.000000000     0.083502354  0.000000000  0.000000000
     0.000000000  7.398447347  0.000000000     0.000000000  0.135163495  0.000000000
     0.000000000  0.000000000  7.009418649     0.000000000  0.000000000  0.142665184

  length of vectors
    11.975710333  7.398447347  7.009418649     0.083502354  0.135163495  0.142665184


 
 k-points in units of 2pi/SCALE and weight: Auto                                    
   0.00000000  0.00000000  0.00000000       0.005
   0.02077121  0.00000000  0.00000000       0.010
   0.04154242  0.00000000  0.00000000       0.005
   0.00000000  0.01921253  0.00000000       0.010
   0.02077121  0.01921253  0.00000000       0.020
   0.04154242  0.01921253  0.00000000       0.010
   0.00000000  0.03842505  0.00000000       0.010
   0.02077121  0.03842505  0.00000000       0.020
   0.04154242  0.03842505  0.00000000       0.010
   0.00000000  0.05763758  0.00000000       0.010
   0.02077121  0.05763758  0.00000000       0.020
   0.04154242  0.05763758  0.00000000       0.010
   0.00000000  0.00000000  0.02027884       0.010
   0.02077121  0.00000000  0.02027884       0.010
  -0.02077121  0.00000000  0.02027884       0.010
   0.04154242  0.00000000  0.02027884       0.010
   0.00000000  0.01921253  0.02027884       0.020
   0.02077121  0.01921253  0.02027884       0.020
  -0.02077121 -0.01921253  0.02027884       0.020
   0.04154242  0.01921253  0.02027884       0.020
   0.00000000  0.03842505  0.02027884       0.020
   0.02077121  0.03842505  0.02027884       0.020
  -0.02077121 -0.03842505  0.02027884       0.020
   0.04154242  0.03842505  0.02027884       0.020
   0.00000000  0.05763758  0.02027884       0.020
   0.02077121  0.05763758  0.02027884       0.020
  -0.02077121 -0.05763758  0.02027884       0.020
   0.04154242  0.05763758  0.02027884       0.020
   0.00000000  0.00000000  0.04055767       0.010
   0.02077121  0.00000000  0.04055767       0.010
  -0.02077121  0.00000000  0.04055767       0.010
   0.04154242  0.00000000  0.04055767       0.010
   0.00000000  0.01921253  0.04055767       0.020
   0.02077121  0.01921253  0.04055767       0.020
  -0.02077121 -0.01921253  0.04055767       0.020
   0.04154242  0.01921253  0.04055767       0.020
   0.00000000  0.03842505  0.04055767       0.020
   0.02077121  0.03842505  0.04055767       0.020
  -0.02077121 -0.03842505  0.04055767       0.020
   0.04154242  0.03842505  0.04055767       0.020
   0.00000000  0.05763758  0.04055767       0.020
   0.02077121  0.05763758  0.04055767       0.020
  -0.02077121 -0.05763758  0.04055767       0.020
   0.04154242  0.05763758  0.04055767       0.020
   0.00000000  0.00000000  0.06083651       0.010
   0.02077121  0.00000000  0.06083651       0.010
  -0.02077121  0.00000000  0.06083651       0.010
   0.04154242  0.00000000  0.06083651       0.010
   0.00000000  0.01921253  0.06083651       0.020
   0.02077121  0.01921253  0.06083651       0.020
  -0.02077121 -0.01921253  0.06083651       0.020
   0.04154242  0.01921253  0.06083651       0.020
   0.00000000  0.03842505  0.06083651       0.020
   0.02077121  0.03842505  0.06083651       0.020
  -0.02077121 -0.03842505  0.06083651       0.020
   0.04154242  0.03842505  0.06083651       0.020
   0.00000000  0.05763758  0.06083651       0.020
   0.02077121  0.05763758  0.06083651       0.020
  -0.02077121 -0.05763758  0.06083651       0.020
   0.04154242  0.05763758  0.06083651       0.020
 
 k-points in reciprocal lattice and weights: Auto                                    
   0.00000000  0.00000000  0.00000000       0.005
   0.25000000  0.00000000  0.00000000       0.010
   0.50000000  0.00000000  0.00000000       0.005
   0.00000000  0.14285714  0.00000000       0.010
   0.25000000  0.14285714  0.00000000       0.020
   0.50000000  0.14285714  0.00000000       0.010
   0.00000000  0.28571429  0.00000000       0.010
   0.25000000  0.28571429  0.00000000       0.020
   0.50000000  0.28571429  0.00000000       0.010
   0.00000000  0.42857143  0.00000000       0.010
   0.25000000  0.42857143  0.00000000       0.020
   0.50000000  0.42857143  0.00000000       0.010
   0.00000000  0.00000000  0.14285714       0.010
   0.25000000  0.00000000  0.14285714       0.010
  -0.25000000  0.00000000  0.14285714       0.010
   0.50000000  0.00000000  0.14285714       0.010
   0.00000000  0.14285714  0.14285714       0.020
   0.25000000  0.14285714  0.14285714       0.020
  -0.25000000 -0.14285714  0.14285714       0.020
   0.50000000  0.14285714  0.14285714       0.020
   0.00000000  0.28571429  0.14285714       0.020
   0.25000000  0.28571429  0.14285714       0.020
  -0.25000000 -0.28571429  0.14285714       0.020
   0.50000000  0.28571429  0.14285714       0.020
   0.00000000  0.42857143  0.14285714       0.020
   0.25000000  0.42857143  0.14285714       0.020
  -0.25000000 -0.42857143  0.14285714       0.020
   0.50000000  0.42857143  0.14285714       0.020
   0.00000000  0.00000000  0.28571429       0.010
   0.25000000  0.00000000  0.28571429       0.010
  -0.25000000  0.00000000  0.28571429       0.010
   0.50000000  0.00000000  0.28571429       0.010
   0.00000000  0.14285714  0.28571429       0.020
   0.25000000  0.14285714  0.28571429       0.020
  -0.25000000 -0.14285714  0.28571429       0.020
   0.50000000  0.14285714  0.28571429       0.020
   0.00000000  0.28571429  0.28571429       0.020
   0.25000000  0.28571429  0.28571429       0.020
  -0.25000000 -0.28571429  0.28571429       0.020
   0.50000000  0.28571429  0.28571429       0.020
   0.00000000  0.42857143  0.28571429       0.020
   0.25000000  0.42857143  0.28571429       0.020
  -0.25000000 -0.42857143  0.28571429       0.020
   0.50000000  0.42857143  0.28571429       0.020
   0.00000000  0.00000000  0.42857143       0.010
   0.25000000  0.00000000  0.42857143       0.010
  -0.25000000  0.00000000  0.42857143       0.010
   0.50000000  0.00000000  0.42857143       0.010
   0.00000000  0.14285714  0.42857143       0.020
   0.25000000  0.14285714  0.42857143       0.020
  -0.25000000 -0.14285714  0.42857143       0.020
   0.50000000  0.14285714  0.42857143       0.020
   0.00000000  0.28571429  0.42857143       0.020
   0.25000000  0.28571429  0.42857143       0.020
  -0.25000000 -0.28571429  0.42857143       0.020
   0.50000000  0.28571429  0.42857143       0.020
   0.00000000  0.42857143  0.42857143       0.020
   0.25000000  0.42857143  0.42857143       0.020
  -0.25000000 -0.42857143  0.42857143       0.020
   0.50000000  0.42857143  0.42857143       0.020
 
 position of ions in fractional coordinates (direct lattice) 
   0.24190000  0.25000000  0.17829999
   0.24190000  0.75000000  0.17829999
   0.49190000  0.25000000  0.32170001
   0.49190000  0.75000000  0.32170001
   0.74190003  0.25000000  0.17829999
   0.74190003  0.75000000  0.17829999
   0.99190003  0.25000000  0.32170001
   0.99190003  0.75000000  0.32170001
   0.00810000  0.00000000  0.67830002
   0.25810000  0.00000000  0.82169998
   0.50809997  0.00000000  0.67830002
   0.75809997  0.00000000  0.82169998
   0.00810000  0.50000000  0.67830002
   0.25810000  0.50000000  0.82169998
   0.75809997  0.50000000  0.82169998
   0.17670000  0.25000000  0.55330002
   0.17670000  0.75000000  0.55330002
   0.42670000  0.25000000  0.94669998
   0.42670000  0.75000000  0.94669998
   0.67670000  0.25000000  0.55330002
   0.67670000  0.75000000  0.55330002
   0.92670000  0.25000000  0.94669998
   0.92670000  0.75000000  0.94669998
   0.07330000  0.00000000  0.05330000
   0.32330000  0.00000000  0.44670001
   0.57330000  0.00000000  0.05330000
   0.82330000  0.00000000  0.44670001
   0.07330000  0.50000000  0.05330000
   0.32330000  0.50000000  0.44670001
   0.57330000  0.50000000  0.05330000
   0.82330000  0.50000000  0.44670001
   0.12525000  0.25000000  0.87830001
   0.12525000  0.75000000  0.87830001
   0.37525001  0.25000000  0.62169999
   0.37525001  0.75000000  0.62169999
   0.62524998  0.25000000  0.87830001
   0.62524998  0.75000000  0.87830001
   0.87524998  0.25000000  0.62169999
   0.87524998  0.75000000  0.62169999
   0.12475000  0.00000000  0.37830001
   0.37474999  0.00000000  0.12170000
   0.62475002  0.00000000  0.37830001
   0.87475002  0.00000000  0.12170000
   0.12475000  0.50000000  0.37830001
   0.37474999  0.50000000  0.12170000
   0.62475002  0.50000000  0.37830001
   0.87475002  0.50000000  0.12170000
   0.50809997  0.50000000  0.67830002
 
 position of ions in cartesian coordinates  (Angst):
   2.89692429  1.84961184  1.24977930
   2.89692429  5.54883551  1.24977930
   5.89085188  1.84961184  2.25493003
   5.89085188  5.54883551  2.25493003
   8.88477982  1.84961184  1.24977930
   8.88477982  5.54883551  1.24977930
  11.87870740  1.84961184  2.25493003
  11.87870740  5.54883551  2.25493003
   0.09700325  0.00000000  4.75448883
   3.09093087  0.00000000  5.75963914
   6.08485810  0.00000000  4.75448883
   9.07878568  0.00000000  5.75963914
   0.09700325  3.69922367  4.75448883
   3.09093087  3.69922367  5.75963914
   9.07878568  3.69922367  5.75963914
   2.11610797  1.84961184  3.87831150
   2.11610797  5.54883551  3.87831150
   5.11003555  1.84961184  6.63581647
   5.11003555  5.54883551  6.63581647
   8.10396313  1.84961184  3.87831150
   8.10396313  5.54883551  3.87831150
  11.09789072  1.84961184  6.63581647
  11.09789072  5.54883551  6.63581647
   0.87781953  0.00000000  0.37360202
   3.87174720  0.00000000  3.13110736
   6.86567478  0.00000000  0.37360202
   9.85960237  0.00000000  3.13110736
   0.87781953  3.69922367  0.37360202
   3.87174720  3.69922367  3.13110736
   6.86567478  3.69922367  0.37360202
   9.85960237  3.69922367  3.13110736
   1.49995768  1.84961184  6.15637248
   1.49995768  5.54883551  6.15637248
   4.49388545  1.84961184  4.35775550
   4.49388545  5.54883551  4.35775550
   7.48781267  1.84961184  6.15637248
   7.48781267  5.54883551  6.15637248
  10.48174025  1.84961184  4.35775550
  10.48174025  5.54883551  4.35775550
   1.49396990  0.00000000  2.65166315
   4.48789730  0.00000000  0.85304622
   7.48182525  0.00000000  2.65166315
  10.47575283  0.00000000  0.85304622
   1.49396990  3.69922367  2.65166315
   4.48789730  3.69922367  0.85304622
   7.48182525  3.69922367  2.65166315
  10.47575283  3.69922367  0.85304622
   6.08485810  3.69922367  4.75448883
 


--------------------------------------------------------------------------------------------------------


 k-point   1 :   0.0000 0.0000 0.0000  plane waves:   13445
 k-point   2 :   0.2500 0.0000 0.0000  plane waves:   13479
 k-point   3 :   0.5000 0.0000 0.0000  plane waves:   13482
 k-point   4 :   0.0000 0.1429 0.0000  plane waves:   13441
 k-point   5 :   0.2500 0.1429 0.0000  plane waves:   13460
 k-point   6 :   0.5000 0.1429 0.0000  plane waves:   13488
 k-point   7 :   0.0000 0.2857 0.0000  plane waves:   13442
 k-point   8 :   0.2500 0.2857 0.0000  plane waves:   13458
 k-point   9 :   0.5000 0.2857 0.0000  plane waves:   13476
 k-point  10 :   0.0000 0.4286 0.0000  plane waves:   13420
 k-point  11 :   0.2500 0.4286 0.0000  plane waves:   13445
 k-point  12 :   0.5000 0.4286 0.0000  plane waves:   13484
 k-point  13 :   0.0000 0.0000 0.1429  plane waves:   13470
 k-point  14 :   0.2500 0.0000 0.1429  plane waves:   13464
 k-point  15 :  -0.2500 0.0000 0.1429  plane waves:   13464
 k-point  16 :   0.5000 0.0000 0.1429  plane waves:   13450
 k-point  17 :   0.0000 0.1429 0.1429  plane waves:   13461
 k-point  18 :   0.2500 0.1429 0.1429  plane waves:   13448
 k-point  19 :  -0.2500-0.1429 0.1429  plane waves:   13448
 k-point  20 :   0.5000 0.1429 0.1429  plane waves:   13442
 k-point  21 :   0.0000 0.2857 0.1429  plane waves:   13472
 k-point  22 :   0.2500 0.2857 0.1429  plane waves:   13452
 k-point  23 :  -0.2500-0.2857 0.1429  plane waves:   13452
 k-point  24 :   0.5000 0.2857 0.1429  plane waves:   13434
 k-point  25 :   0.0000 0.4286 0.1429  plane waves:   13444
 k-point  26 :   0.2500 0.4286 0.1429  plane waves:   13454
 k-point  27 :  -0.2500-0.4286 0.1429  plane waves:   13454
 k-point  28 :   0.5000 0.4286 0.1429  plane waves:   13484
 k-point  29 :   0.0000 0.0000 0.2857  plane waves:   13474
 k-point  30 :   0.2500 0.0000 0.2857  plane waves:   13457
 k-point  31 :  -0.2500 0.0000 0.2857  plane waves:   13457
 k-point  32 :   0.5000 0.0000 0.2857  plane waves:   13438
 k-point  33 :   0.0000 0.1429 0.2857  plane waves:   13463
 k-point  34 :   0.2500 0.1429 0.2857  plane waves:   13457
 k-point  35 :  -0.2500-0.1429 0.2857  plane waves:   13457
 k-point  36 :   0.5000 0.1429 0.2857  plane waves:   13466
 k-point  37 :   0.0000 0.2857 0.2857  plane waves:   13471
 k-point  38 :   0.2500 0.2857 0.2857  plane waves:   13463
 k-point  39 :  -0.2500-0.2857 0.2857  plane waves:   13463
 k-point  40 :   0.5000 0.2857 0.2857  plane waves:   13448
 k-point  41 :   0.0000 0.4286 0.2857  plane waves:   13475
 k-point  42 :   0.2500 0.4286 0.2857  plane waves:   13471
 k-point  43 :  -0.2500-0.4286 0.2857  plane waves:   13471
 k-point  44 :   0.5000 0.4286 0.2857  plane waves:   13484
 k-point  45 :   0.0000 0.0000 0.4286  plane waves:   13492
 k-point  46 :   0.2500 0.0000 0.4286  plane waves:   13450
 k-point  47 :  -0.2500 0.0000 0.4286  plane waves:   13450
 k-point  48 :   0.5000 0.0000 0.4286  plane waves:   13464
 k-point  49 :   0.0000 0.1429 0.4286  plane waves:   13461
 k-point  50 :   0.2500 0.1429 0.4286  plane waves:   13460
 k-point  51 :  -0.2500-0.1429 0.4286  plane waves:   13460
 k-point  52 :   0.5000 0.1429 0.4286  plane waves:   13446
 k-point  53 :   0.0000 0.2857 0.4286  plane waves:   13475
 k-point  54 :   0.2500 0.2857 0.4286  plane waves:   13468
 k-point  55 :  -0.2500-0.2857 0.4286  plane waves:   13468
 k-point  56 :   0.5000 0.2857 0.4286  plane waves:   13488
 k-point  57 :   0.0000 0.4286 0.4286  plane waves:   13470
 k-point  58 :   0.2500 0.4286 0.4286  plane waves:   13487
 k-point  59 :  -0.2500-0.4286 0.4286  plane waves:   13487
 k-point  60 :   0.5000 0.4286 0.4286  plane waves:   13480

 maximum and minimum number of plane-waves per node :      2329     2173

 maximum number of plane-waves:     13492
 maximum index in each direction: 
   IXMAX=   20   IYMAX=   13   IZMAX=   12
   IXMIN=  -21   IYMIN=  -13   IZMIN=  -12


 parallel 3D FFT for wavefunctions:
    minimum data exchange during FFTs selected (reduces bandwidth)
 parallel 3D FFT for charge:
    minimum data exchange during FFTs selected (reduces bandwidth)


 total amount of memory used by VASP MPI-rank0   533559. kBytes
=======================================================================

   base      :      30000. kBytes
   nonl-proj :      79134. kBytes
   fftplans  :       3577. kBytes
   grid      :      10028. kBytes
   one-center:        248. kBytes
   wavefun   :     410572. kBytes
 
     INWAV:  cpu time    0.0010: real time    0.0069
 Broyden mixing: mesh for mixing (old mesh)
   NGX = 41   NGY = 25   NGZ = 25
  (NGX  =168   NGY  =108   NGZ  = 96)
  gives a total of  25625 points

 initial charge density was supplied:
 charge density of overlapping atoms calculated
 number of electron     337.0000000 magnetization     160.0000000
 keeping initial charge density in first step


--------------------------------------------------------------------------------------------------------


 Maximum index for augmentation-charges          821 (set IRDMAX)


--------------------------------------------------------------------------------------------------------


 First call to EWALD:  gamma=   0.208
 Maximum number of real-space cells 2x 3x 3
 Maximum number of reciprocal cells 4x 2x 2

    FEWALD:  cpu time    0.0020: real time    0.0104


--------------------------------------- Iteration      1(   1)  ---------------------------------------


    POTLOK:  cpu time    0.1520: real time    0.4149
    SETDIJ:  cpu time    0.0320: real time    0.1223
     EDDAV:  cpu time  279.1266: real time  281.1665
       DOS:  cpu time    0.0390: real time    0.0744
    --------------------------------------------
      LOOP:  cpu time  279.3495: real time  281.7782

 eigenvalue-minimisations  : 86400
 total energy-change (2. order) : 0.2803109E+04  (-0.1092451E+05)
 number of electron     337.0000000 magnetization     160.0000000
 augmentation part      337.0000000 magnetization     160.0000000

 Free energy of the ion-electron system (eV)
  ---------------------------------------------------
  alpha Z        PSCENC =      1546.46377022
  Ewald energy   TEWEN  =    -22107.92931500
  -Hartree energ DENC   =     -6977.16951690
  -exchange      EXHF   =         0.00000000
  -V(xc)+E(xc)   XCENC  =       315.53508470
  PAW double counting   =     23377.83946347   -23998.34197029
  entropy T*S    EENTRO =        -0.00041549
  eigenvalues    EBANDS =      4878.48473191
  atomic energy  EATOM  =     25768.22672671
  Solvation  Ediel_sol  =         0.00000000
  ---------------------------------------------------
  free energy    TOTEN  =      2803.10855934 eV

  energy without entropy =     2803.10897482  energy(sigma->0) =     2803.10869783


--------------------------------------------------------------------------------------------------------




--------------------------------------- Iteration      1(   2)  ---------------------------------------


     EDDAV:  cpu time  278.7466: real time  280.0892
       DOS:  cpu time    0.0460: real time    0.0469
    --------------------------------------------
      LOOP:  cpu time  278.7926: real time  280.1361

 eigenvalue-minimisations  : 86400
 total energy-change (2. order) :-0.2631745E+04  (-0.2344212E+04)
 number of electron     337.0000000 magnetization     160.0000000
 augmentation part      337.0000000 magnetization     160.0000000

 Free energy of the ion-electron system (eV)
  ---------------------------------------------------
  alpha Z        PSCENC =      1546.46377022
  Ewald energy   TEWEN  =    -22107.92931500
  -Hartree energ DENC   =     -6977.16951690
  -exchange      EXHF   =         0.00000000
  -V(xc)+E(xc)   XCENC  =       315.53508470
  PAW double counting   =     23377.83946347   -23998.34197029
  entropy T*S    EENTRO =        -0.00257380
  eigenvalues    EBANDS =      2246.74168028
  atomic energy  EATOM  =     25768.22672671
  Solvation  Ediel_sol  =         0.00000000
  ---------------------------------------------------
  free energy    TOTEN  =       171.36334939 eV

  energy without entropy =      171.36592319  energy(sigma->0) =      171.36420733


--------------------------------------------------------------------------------------------------------




--------------------------------------- Iteration      1(   3)  ---------------------------------------


     EDDAV:  cpu time  279.0966: real time  280.3907
       DOS:  cpu time    0.0520: real time    0.0519
    --------------------------------------------
      LOOP:  cpu time  279.1486: real time  280.4426

 eigenvalue-minimisations  : 86512
 total energy-change (2. order) :-0.4400211E+03  (-0.3633569E+03)
 number of electron     337.0000000 magnetization     160.0000000
 augmentation part      337.0000000 magnetization     160.0000000

 Free energy of the ion-electron system (eV)
  ---------------------------------------------------
  alpha Z        PSCENC =      1546.46377022
  Ewald energy   TEWEN  =    -22107.92931500
  -Hartree energ DENC   =     -6977.16951690
  -exchange      EXHF   =         0.00000000
  -V(xc)+E(xc)   XCENC  =       315.53508470
  PAW double counting   =     23377.83946347   -23998.34197029
  entropy T*S    EENTRO =         0.00442304
  eigenvalues    EBANDS =      1806.71357542
  atomic energy  EATOM  =     25768.22672671
  Solvation  Ediel_sol  =         0.00000000
  ---------------------------------------------------
  free energy    TOTEN  =      -268.65775863 eV

  energy without entropy =     -268.66218167  energy(sigma->0) =     -268.65923298


--------------------------------------------------------------------------------------------------------




--------------------------------------- Iteration      1(   4)  ---------------------------------------


     EDDAV:  cpu time  327.6742: real time  328.8650
       DOS:  cpu time    0.0540: real time    0.0542
    --------------------------------------------
      LOOP:  cpu time  327.7282: real time  328.9192

 eigenvalue-minimisations  :106248
 total energy-change (2. order) :-0.3115957E+02  (-0.2992391E+02)
 number of electron     337.0000000 magnetization     160.0000000
 augmentation part      337.0000000 magnetization     160.0000000

 Free energy of the ion-electron system (eV)
  ---------------------------------------------------
  alpha Z        PSCENC =      1546.46377022
  Ewald energy   TEWEN  =    -22107.92931500
  -Hartree energ DENC   =     -6977.16951690
  -exchange      EXHF   =         0.00000000
  -V(xc)+E(xc)   XCENC  =       315.53508470
  PAW double counting   =     23377.83946347   -23998.34197029
  entropy T*S    EENTRO =         0.01515566
  eigenvalues    EBANDS =      1775.54327472
  atomic energy  EATOM  =     25768.22672671
  Solvation  Ediel_sol  =         0.00000000
  ---------------------------------------------------
  free energy    TOTEN  =      -299.81732670 eV

  energy without entropy =     -299.83248236  energy(sigma->0) =     -299.82237859


--------------------------------------------------------------------------------------------------------




--------------------------------------- Iteration      1(   5)  ---------------------------------------


     EDDAV:  cpu time  321.8081: real time  322.9597
       DOS:  cpu time    0.0540: real time    0.0536
    CHARGE:  cpu time    4.3473: real time    4.4275
    MIXING:  cpu time    0.0070: real time    0.0629
    --------------------------------------------
      LOOP:  cpu time  326.2164: real time  327.5037

 eigenvalue-minimisations  :103888
 total energy-change (2. order) :-0.7973712E+00  (-0.7956992E+00)
 number of electron     337.0000159 magnetization     132.1066472
 augmentation part      118.6517070 magnetization     110.3544346

 Broyden mixing:
  rms(total) = 0.10237E+02    rms(broyden)= 0.10237E+02
  rms(prec ) = 0.11032E+02
  weight for this iteration     100.00

 Free energy of the ion-electron system (eV)
  ---------------------------------------------------
  alpha Z        PSCENC =      1546.46377022
  Ewald energy   TEWEN  =    -22107.92931500
  -Hartree energ DENC   =     -6977.16951690
  -exchange      EXHF   =         0.00000000
  -V(xc)+E(xc)   XCENC  =       315.53508470
  PAW double counting   =     23377.83946347   -23998.34197029
  entropy T*S    EENTRO =         0.01559300
  eigenvalues    EBANDS =      1774.74546619
  atomic energy  EATOM  =     25768.22672671
  Solvation  Ediel_sol  =         0.00000000
  ---------------------------------------------------
  free energy    TOTEN  =      -300.61469790 eV

  energy without entropy =     -300.63029090  energy(sigma->0) =     -300.61989557


--------------------------------------------------------------------------------------------------------




--------------------------------------- Iteration      1(   6)  ---------------------------------------


    POTLOK:  cpu time    0.1370: real time    0.1403
    SETDIJ:  cpu time    0.0270: real time    0.0263
     EDDAV:  cpu time  337.9606: real time  339.1671
       DOS:  cpu time    0.0550: real time    0.0551
    CHARGE:  cpu time    4.1084: real time    4.1268
    MIXING:  cpu time    0.0060: real time    0.0880
    --------------------------------------------
      LOOP:  cpu time  342.2940: real time  343.6035

 eigenvalue-minimisations  :109248
 total energy-change (2. order) :-0.7922879E+02  (-0.2333131E+02)
 number of electron     337.0000246 magnetization     121.4330102
 augmentation part      159.2351593 magnetization      96.9621066

 Broyden mixing:
  rms(total) = 0.11587E+02    rms(broyden)= 0.11587E+02
  rms(prec ) = 0.13082E+02
  weight for this iteration     100.00

 eigenvalues of (default mixing * dielectric matrix)
  average eigenvalue GAMMA=   0.5955
  0.5955

 Free energy of the ion-electron system (eV)
  ---------------------------------------------------
  alpha Z        PSCENC =      1546.46377022
  Ewald energy   TEWEN  =    -22107.92931500
  -Hartree energ DENC   =     -6036.08252481
  -exchange      EXHF   =         0.00000000
  -V(xc)+E(xc)   XCENC  =       233.44835835
  PAW double counting   =     25636.39050096   -26110.12279208
  entropy T*S    EENTRO =         0.00037989
  eigenvalues    EBANDS =       689.76140813
  atomic energy  EATOM  =     25768.22672671
  Solvation  Ediel_sol  =         0.00000000
  ---------------------------------------------------
  free energy    TOTEN  =      -379.84348761 eV

  energy without entropy =     -379.84386750  energy(sigma->0) =     -379.84361424


--------------------------------------------------------------------------------------------------------




--------------------------------------- Iteration      1(   7)  ---------------------------------------


    POTLOK:  cpu time    0.1390: real time    0.1402
    SETDIJ:  cpu time    0.0260: real time    0.0262
     EDDAV:  cpu time  330.2738: real time  331.8176
       DOS:  cpu time    0.0530: real time    0.0533
    CHARGE:  cpu time    4.0494: real time    4.0572
    MIXING:  cpu time    0.0060: real time    0.0325
    --------------------------------------------
      LOOP:  cpu time  334.5471: real time  336.1270

 eigenvalue-minimisations  :106072
 total energy-change (2. order) : 0.7350149E+02  (-0.1854046E+02)
 number of electron     337.0000198 magnetization     107.8263635
 augmentation part      151.1180917 magnetization      88.1274478

 Broyden mixing:
  rms(total) = 0.69907E+01    rms(broyden)= 0.69905E+01
  rms(prec ) = 0.89631E+01
  weight for this iteration     100.00

 eigenvalues of (default mixing * dielectric matrix)
  average eigenvalue GAMMA=   0.6083
  0.8984  0.3182

 Free energy of the ion-electron system (eV)
  ---------------------------------------------------
  alpha Z        PSCENC =      1546.46377022
  Ewald energy   TEWEN  =    -22107.92931500
  -Hartree energ DENC   =     -6421.88461334
  -exchange      EXHF   =         0.00000000
  -V(xc)+E(xc)   XCENC  =       248.72981919
  PAW double counting   =     27254.69203640   -27864.40987851
  entropy T*S    EENTRO =         0.07399179
  eigenvalues    EBANDS =      1269.69546616
  atomic energy  EATOM  =     25768.22672671
  Solvation  Ediel_sol  =         0.00000000
  ---------------------------------------------------
  free energy    TOTEN  =      -306.34199636 eV

  energy without entropy =     -306.41598815  energy(sigma->0) =     -306.36666029


--------------------------------------------------------------------------------------------------------




[...]
   43       -0.016  -0.115   0.002  -0.128
   44       -0.016  -0.115   0.002  -0.128
   45       -0.017  -0.114   0.003  -0.128
   46       -0.014  -0.105   0.000  -0.119
   47       -0.016  -0.115   0.002  -0.129
   48        0.010  -0.003   2.227   2.233
--------------------------------------------------
tot         -0.267  -2.288  48.651  46.097
 
    CHARGE:  cpu time    4.0114: real time    4.0197
    FORLOC:  cpu time    0.0220: real time    0.0227
    FORNL :  cpu time   99.6409: real time   99.9751
    STRESS:  cpu time  175.1504: real time  175.7641
    FORCOR:  cpu time    0.1520: real time    0.1772
    FORHAR:  cpu time    0.0330: real time    0.0400
    MIXING:  cpu time    0.0080: real time    0.0095
    OFIELD:  cpu time    0.0020: real time    0.0044

  FORCE on cell =-STRESS in cart. coord.  units (eV):
  Direction    XX          YY          ZZ          XY          YZ          ZX
  --------------------------------------------------------------------------------------
  Alpha Z  1546.46377  1546.46377  1546.46377
  Ewald   -7604.15517 -7023.16343 -7480.71154     0.00000     0.00000     0.12699
  Hartree  2104.23859  2380.24368  2008.19192    -0.00000    -0.00000    -1.01455
  E(xc)   -1657.66095 -1660.04449 -1657.77538     0.00000     0.00000     0.12529
  Local    -375.63757 -1188.11966  -372.32012     0.00000     0.00000     1.85163
  n-local  -247.24581  -225.52302  -229.74913    -0.13730    -0.83978     0.52929
  augment  3341.97568  3323.48243  3314.23831    -0.00000     0.00000    -0.78613
  Kinetic  2897.14833  2862.88643  2875.58262    -0.10493     0.18253    -0.95358
  Fock        0.00000     0.00000     0.00000     0.00000     0.00000     0.00000
  -------------------------------------------------------------------------------------
  Total       5.12687    16.22570     3.92046     0.00000     0.00000    -0.12106
  in kB      13.22631    41.85913    10.11403     0.00000     0.00000    -0.31231
  external pressure =       21.73 kB  Pullay stress =        0.00 kB


 VOLUME and BASIS-vectors are now :
 -----------------------------------------------------------------------------
  energy-cutoff  :      450.00
  volume of cell :      621.05
      direct lattice vectors                 reciprocal lattice vectors
    11.975710333  0.000000000  0.000000000     0.083502354  0.000000000  0.000000000
     0.000000000  7.398447347  0.000000000     0.000000000  0.135163495  0.000000000
     0.000000000  0.000000000  7.009418649     0.000000000  0.000000000  0.142665184

  length of vectors
    11.975710333  7.398447347  7.009418649     0.083502354  0.135163495  0.142665184


 FORCES acting on ions
    electron-ion (+dipol)            ewald-force                    non-local-force                 convergence-correction
 -----------------------------------------------------------------------------------------------
   0.105E+02 0.104E+01 0.360E+02   -.106E+02 -.102E+01 -.359E+02   -.587E+00 -.917E-02 0.152E+00   -.212E-02 -.394E-03 0.376E-04
   0.105E+02 -.104E+01 0.360E+02   -.106E+02 0.102E+01 -.359E+02   -.587E+00 0.917E-02 0.152E+00   -.212E-02 0.394E-03 0.376E-04
   0.699E+01 0.492E+01 -.311E+02   -.706E+01 -.502E+01 0.309E+02   -.610E+00 0.755E-01 -.487E-01   -.616E-03 -.184E-02 -.257E-02
   0.699E+01 -.492E+01 -.311E+02   -.706E+01 0.502E+01 0.309E+02   -.610E+00 -.755E-01 -.487E-01   -.616E-03 0.184E-02 -.257E-02
   0.152E+01 0.126E+01 0.360E+02   -.157E+01 -.129E+01 -.359E+02   -.634E+00 0.268E-01 0.150E+00   0.235E-02 -.349E-03 -.166E-03
   0.152E+01 -.126E+01 0.360E+02   -.157E+01 0.129E+01 -.359E+02   -.634E+00 -.268E-01 0.150E+00   0.235E-02 0.349E-03 -.166E-03
   0.577E+01 0.282E+00 -.359E+02   -.585E+01 -.280E+00 0.357E+02   -.611E+00 -.515E-02 -.139E+00   0.415E-03 -.825E-03 0.165E-03
   0.577E+01 -.282E+00 -.359E+02   -.585E+01 0.280E+00 0.357E+02   -.611E+00 0.515E-02 -.139E+00   0.415E-03 0.825E-03 0.165E-03
   -.614E+01 0.116E-12 0.361E+02   0.622E+01 0.581E-14 -.359E+02   0.606E+00 0.000E+00 0.143E+00   0.279E-03 0.905E-13 0.328E-04
   -.150E+01 0.000E+00 -.367E+02   0.151E+01 -.282E-14 0.366E+02   0.658E+00 0.000E+00 -.174E+00   -.283E-02 0.687E-13 0.669E-03
   -.613E+01 0.461E-13 0.360E+02   0.622E+01 -.337E-13 -.359E+02   0.648E+00 0.000E+00 0.145E+00   -.450E-03 0.994E-13 0.293E-03
   -.108E+02 0.206E-12 -.367E+02   0.109E+02 0.238E-13 0.366E+02   0.594E+00 0.000E+00 -.155E+00   0.292E-02 0.583E-13 0.519E-03
   -.614E+01 0.383E-12 0.361E+02   0.622E+01 0.607E-14 -.359E+02   0.621E+00 0.000E+00 0.147E+00   0.127E-04 0.763E-13 -.114E-03
   0.391E+01 0.112E-11 -.384E+02   -.377E+01 -.237E-14 0.382E+02   0.698E+00 0.000E+00 -.191E+00   -.432E-02 0.511E-13 0.861E-03
   -.161E+02 0.171E-11 -.384E+02   0.162E+02 0.233E-13 0.382E+02   0.574E+00 0.000E+00 -.169E+00   0.471E-02 0.666E-13 0.146E-02
   0.793E+02 0.150E+01 -.399E+02   -.790E+02 -.149E+01 0.407E+02   -.366E-01 -.132E-01 -.291E+00   -.419E-02 -.487E-03 -.416E-03
   0.793E+02 -.150E+01 -.399E+02   -.790E+02 0.149E+01 0.407E+02   -.366E-01 0.132E-01 -.291E+00   -.419E-02 0.487E-03 -.416E-03
   0.801E+02 0.966E+01 0.315E+02   -.798E+02 -.967E+01 -.323E+02   -.818E-01 0.326E-01 0.274E+00   -.313E-02 -.392E-02 0.439E-02
   0.801E+02 -.966E+01 0.315E+02   -.798E+02 0.967E+01 -.323E+02   -.818E-01 -.326E-01 0.274E+00   -.313E-02 0.392E-02 0.439E-02
   0.594E+02 0.862E+01 -.364E+02   -.590E+02 -.867E+01 0.372E+02   -.174E+00 0.462E-01 -.280E+00   0.617E-02 -.315E-02 -.218E-02
   0.594E+02 -.862E+01 -.364E+02   -.590E+02 0.867E+01 0.372E+02   -.174E+00 -.462E-01 -.280E+00   0.617E-02 0.315E-02 -.218E-02
   0.700E+02 0.581E+00 0.402E+02   -.697E+02 -.575E+00 -.410E+02   -.708E-01 -.714E-02 0.287E+00   0.215E-02 -.781E-03 -.214E-04
   0.700E+02 -.581E+00 0.402E+02   -.697E+02 0.575E+00 -.410E+02   -.708E-01 0.714E-02 0.287E+00   0.215E-02 0.781E-03 -.214E-04
   -.710E+02 0.869E-13 -.408E+02   0.706E+02 0.316E-13 0.417E+02   0.977E-01 0.000E+00 -.288E+00   -.173E-02 0.149E-13 -.350E-03
   -.664E+02 0.145E-12 0.425E+02   0.660E+02 -.206E-13 -.434E+02   0.162E+00 0.000E+00 0.312E+00   -.312E-02 0.925E-13 -.125E-02
   -.756E+02 0.287E-13 -.428E+02   0.752E+02 0.131E-13 0.436E+02   0.103E+00 0.000E+00 -.302E+00   0.336E-03 -.573E-14 0.133E-02
   -.780E+02 0.597E-13 0.414E+02   0.777E+02 0.218E-13 -.422E+02   0.169E-01 0.000E+00 0.309E+00   0.423E-02 0.944E-13 -.933E-03
   -.705E+02 0.114E-11 -.410E+02   0.701E+02 0.183E-13 0.418E+02   0.900E-01 0.000E+00 -.277E+00   -.135E-02 0.133E-13 0.165E-03
   -.563E+02 -.171E-11 0.493E+02   0.559E+02 -.371E-13 -.501E+02   0.174E+00 0.000E+00 0.330E+00   -.746E-02 0.831E-13 -.391E-02
   -.795E+02 0.230E-11 -.526E+02   0.791E+02 -.425E-14 0.533E+02   0.378E-01 0.000E+00 -.226E+00   0.283E-02 0.117E-14 0.499E-02
   -.809E+02 -.503E-11 0.424E+02   0.805E+02 0.221E-13 -.431E+02   0.106E+00 0.000E+00 0.264E+00   0.423E-02 0.117E-12 -.569E-03
   -.319E+02 0.328E+00 0.147E+02   0.323E+02 -.331E+00 -.144E+02   -.748E+00 -.801E-03 -.714E+00   -.132E-02 -.616E-03 0.949E-05
   -.319E+02 -.328E+00 0.147E+02   0.323E+02 0.331E+00 -.144E+02   -.748E+00 0.801E-03 -.714E+00   -.132E-02 0.616E-03 0.949E-05
   -.272E+02 0.589E+01 -.135E+02   0.275E+02 -.590E+01 0.133E+02   -.551E+00 0.212E+00 0.731E+00   -.276E-02 -.199E-02 -.515E-03
   -.272E+02 -.589E+01 -.135E+02   0.275E+02 0.590E+01 0.133E+02   -.551E+00 -.212E+00 0.731E+00   -.276E-02 0.199E-02 -.515E-03
   -.382E+02 0.429E+01 0.117E+02   0.385E+02 -.432E+01 -.114E+02   -.854E+00 0.103E+00 -.794E+00   0.173E-02 -.143E-02 0.169E-02
   -.382E+02 -.429E+01 0.117E+02   0.385E+02 0.432E+01 -.114E+02   -.854E+00 -.103E+00 -.794E+00   0.173E-02 0.143E-02 0.169E-02
   -.357E+02 0.444E+00 -.148E+02   0.361E+02 -.437E+00 0.145E+02   -.762E+00 0.836E-03 0.712E+00   0.164E-02 -.374E-03 -.828E-04
   -.357E+02 -.444E+00 -.148E+02   0.361E+02 0.437E+00 0.145E+02   -.762E+00 -.836E-03 0.712E+00   0.164E-02 0.374E-03 -.828E-04
   0.350E+02 -.773E-13 0.151E+02   -.353E+02 -.202E-13 -.148E+02   0.760E+00 0.000E+00 -.707E+00   -.138E-02 0.233E-14 -.148E-05
   0.355E+02 0.480E-15 -.153E+02   -.358E+02 -.300E-13 0.149E+02   0.754E+00 0.000E+00 0.702E+00   -.553E-03 -.154E-14 -.101E-03
   0.317E+02 -.432E-13 0.159E+02   -.320E+02 0.693E-14 -.156E+02   0.752E+00 0.000E+00 -.713E+00   0.931E-03 -.435E-14 -.774E-03
   0.322E+02 0.336E-14 -.150E+02   -.325E+02 0.119E-13 0.147E+02   0.747E+00 0.000E+00 0.709E+00   0.128E-02 -.251E-14 0.341E-03
   0.354E+02 -.451E-13 0.152E+02   -.358E+02 -.185E-13 -.149E+02   0.762E+00 0.000E+00 -.711E+00   -.816E-03 -.996E-14 0.111E-03
   0.369E+02 -.873E-12 -.162E+02   -.372E+02 -.243E-13 0.159E+02   0.751E+00 0.000E+00 0.722E+00   -.127E-02 -.616E-14 0.605E-03
   0.282E+02 0.153E-11 0.208E+02   -.284E+02 0.218E-13 -.204E+02   0.566E+00 0.000E+00 -.489E+00   0.226E-02 -.696E-14 -.260E-02
   0.318E+02 0.813E-12 -.150E+02   -.321E+02 0.119E-13 0.147E+02   0.753E+00 0.000E+00 0.715E+00   0.732E-03 -.325E-14 -.104E-03
   -.705E+01 -.226E-11 0.412E+02   0.710E+01 0.172E-13 -.410E+02   0.508E+00 0.000E+00 -.906E-01   -.600E-03 0.110E-12 0.149E-03
 -----------------------------------------------------------------------------------------------
   -.992E-01 0.446E-10 -.881E-01   0.604E-13 0.220E-13 -.227E-12   0.999E-01 0.000E+00 0.868E-01   -.480E-03 0.270E-11 0.151E-02
 
 
 POSITION                                       TOTAL-FORCE (eV/Angst)
 -----------------------------------------------------------------------------------
      2.89692      1.84961      1.24978        -0.700830      0.010805      0.287524
      2.89692      5.54884      1.24978        -0.700830     -0.010805      0.287524
      5.89085      1.84961      2.25493        -0.683096     -0.023598     -0.266839
      5.89085      5.54884      2.25493        -0.683096      0.023598     -0.266839
      8.88478      1.84961      1.24978        -0.682630     -0.000749      0.286684
      8.88478      5.54884      1.24978        -0.682630      0.000749      0.286684
     11.87871      1.84961      2.25493        -0.683248     -0.003911     -0.295668
     11.87871      5.54884      2.25493        -0.683248      0.003911     -0.295668
      0.09700      0.00000      4.75449         0.682502      0.000000      0.295798
      3.09093      0.00000      5.75964         0.668880      0.000000     -0.282066
      6.08486      0.00000      4.75449         0.735006      0.000000      0.269199
      9.07879      0.00000      5.75964         0.707748      0.000000     -0.285093
      0.09700      3.69922      4.75449         0.693881      0.000000      0.301023
      3.09093      3.69922      5.75964         0.836384      0.000000     -0.338472
      9.07879      3.69922      5.75964         0.652895      0.000000     -0.318982
      2.11611      1.84961      3.87831         0.280045     -0.001624      0.519104
      2.11611      5.54884      3.87831         0.280045      0.001624      0.519104
      5.11004      1.84961      6.63582         0.246697      0.019574     -0.534725
      5.11004      5.54884      6.63582         0.246697     -0.019574     -0.534725
      8.10396      1.84961      3.87831         0.215137     -0.004028      0.495736
      8.10396      5.54884      3.87831         0.215137      0.004028      0.495736
     11.09789      1.84961      6.63582         0.267203     -0.001119     -0.518782
     11.09789      5.54884      6.63582         0.267203      0.001119     -0.518782
      0.87782      0.00000      0.37360        -0.258316      0.000000      0.522614
      3.87175      0.00000      3.13111        -0.258289      0.000000     -0.529126
      6.86567      0.00000      0.37360        -0.219108      0.000000      0.517554
      9.85960      0.00000      3.13111        -0.275194      0.000000     -0.511762
      0.87782      3.69922      0.37360        -0.264071      0.000000      0.523997
      3.87175      3.69922      3.13111        -0.207192      0.000000     -0.494178
      6.86567      3.69922      0.37360        -0.323941      0.000000      0.470570
      9.85960      3.69922      3.13111        -0.276415      0.000000     -0.524498
      1.49996      1.84961      6.15637        -0.415722     -0.003705     -0.425480
      1.49996      5.54884      6.15637        -0.415722      0.003705     -0.425480
      4.49389      1.84961      4.35776        -0.289825      0.197448      0.495509
      4.49389      5.54884      4.35776        -0.289825     -0.197448      0.495509
      7.48781      1.84961      6.15637        -0.508746      0.075876     -0.482174
      7.48781      5.54884      6.15637        -0.508746     -0.075876     -0.482174
     10.48174      1.84961      4.35776        -0.423515      0.007302      0.439087
     10.48174      5.54884      4.35776        -0.423515     -0.007302      0.439087
      1.49397      0.00000      2.65166         0.398996      0.000000     -0.434049
      4.48790      0.00000      0.85305         0.453994      0.000000      0.394342
      7.48183      0.00000      2.65166         0.411930      0.000000     -0.429244
     10.47575      0.00000      0.85305         0.423821      0.000000      0.428274
      1.49397      3.69922      2.65166         0.416388      0.000000     -0.427232
      4.48790      3.69922      0.85305         0.408864      0.000000      0.426787
      7.48183      3.69922      2.65166         0.368352      0.000000     -0.103510
     10.47575      3.69922      0.85305         0.413808      0.000000      0.429090
      6.08486      3.69922      4.75449         0.566139      0.000000      0.099010
 -----------------------------------------------------------------------------------
    total drift:                                0.000221      0.000000      0.000194


--------------------------------------------------------------------------------------------------------



  FREE ENERGIE OF THE ION-ELECTRON SYSTEM (eV)
  ---------------------------------------------------
  free  energy   TOTEN  =      -313.12987914 eV

  energy  without entropy=     -313.18736324  energy(sigma->0) =     -313.14904051
 


--------------------------------------------------------------------------------------------------------


    POTLOK:  cpu time    0.1660: real time    0.2105


--------------------------------------------------------------------------------------------------------


     LOOP+:  cpu time13817.0845: real time13873.2583
    4ORBIT:  cpu time    0.0000: real time    0.0000
 


 total charge     
 
# of ion       s       p       d       tot
------------------------------------------
    1        0.264   0.304   5.078   5.645
    2        0.264   0.304   5.078   5.645
    3        0.264   0.303   5.076   5.644
    4        0.264   0.303   5.076   5.644
    5        0.264   0.304   5.078   5.646
    6        0.264   0.304   5.078   5.646
    7        0.264   0.304   5.078   5.646
    8        0.264   0.304   5.078   5.646
    9        0.264   0.304   5.078   5.645
   10        0.264   0.304   5.078   5.646
   11        0.264   0.304   5.078   5.647
   12        0.264   0.304   5.078   5.645
   13        0.264   0.304   5.077   5.645
   14        0.263   0.303   5.077   5.643
   15        0.263   0.303   5.078   5.645
   16        0.459   0.551   8.446   9.456
   17        0.459   0.551   8.446   9.456
   18        0.458   0.547   8.447   9.452
   19        0.458   0.547   8.447   9.452
   20        0.458   0.548   8.446   9.452
   21        0.458   0.548   8.446   9.452
   22        0.459   0.551   8.446   9.456
   23        0.459   0.551   8.446   9.456
   24        0.459   0.551   8.446   9.456
   25        0.459   0.549   8.448   9.456
   26        0.459   0.551   8.446   9.456
   27        0.459   0.550   8.447   9.456
   28        0.459   0.551   8.447   9.456
   29        0.458   0.548   8.445   9.452
   30        0.459   0.547   8.446   9.451
   31        0.459   0.551   8.446   9.456
   32        1.106   1.365   0.139   2.610
   33        1.106   1.365   0.139   2.610
   34        1.105   1.353   0.139   2.598
   35        1.105   1.353   0.139   2.598
   36        1.106   1.358   0.139   2.603
   37        1.106   1.358   0.139   2.603
   38        1.106   1.365   0.139   2.610
   39        1.106   1.365   0.139   2.610
   40        1.106   1.365   0.139   2.610
   41        1.106   1.365   0.139   2.610
   42        1.106   1.364   0.139   2.609
   43        1.106   1.365   0.139   2.609
   44        1.106   1.365   0.139   2.609
   45        1.106   1.366   0.138   2.610
   46        1.106   1.354   0.139   2.599
   47        1.106   1.365   0.139   2.609
   48        0.334   0.393   6.275   7.001
--------------------------------------------------
tot         29.327  35.531 219.798 284.656
 


 magnetization (x)
 
# of ion       s       p       d       tot
------------------------------------------
    1        0.018   0.011   2.952   2.980
    2        0.018   0.011   2.952   2.980
    3        0.019   0.012   2.958   2.988
    4        0.019   0.012   2.958   2.988
    5        0.018   0.011   2.945   2.974
    6        0.018   0.011   2.945   2.974
    7        0.018   0.010   2.946   2.974
    8        0.018   0.010   2.946   2.974
    9        0.018   0.010   2.950   2.978
   10        0.018   0.011   2.949   2.978
   11        0.017   0.011   2.935   2.963
   12        0.018   0.011   2.951   2.980
   13        0.018   0.010   2.954   2.982
   14        0.018   0.011   2.946   2.975
   15        0.018   0.011   2.937   2.966
   16       -0.019  -0.042   0.141   0.080
   17       -0.019  -0.042   0.141   0.080
   18       -0.018  -0.040   0.125   0.067
   19       -0.018  -0.040   0.125   0.067
   20       -0.018  -0.040   0.138   0.079
   21       -0.018  -0.040   0.138   0.079
   22       -0.019  -0.042   0.139   0.077
   23       -0.019  -0.042   0.139   0.077
   24       -0.019  -0.042   0.135   0.075
   25       -0.018  -0.040   0.140   0.082
   26       -0.019  -0.043   0.135   0.073
   27       -0.019  -0.041   0.140   0.080
   28       -0.019  -0.042   0.137   0.076
   29       -0.018  -0.041   0.128   0.069
   30       -0.018  -0.040   0.132   0.074
   31       -0.019  -0.042   0.139   0.077
   32       -0.016  -0.115   0.002  -0.128
   33       -0.016  -0.115   0.002  -0.128
   34       -0.014  -0.105   0.001  -0.118
   35       -0.014  -0.105   0.001  -0.118
   36       -0.015  -0.107   0.001  -0.120
   37       -0.015  -0.107   0.001  -0.120
   38       -0.016  -0.114   0.003  -0.128
   39       -0.016  -0.114   0.003  -0.128
   40       -0.016  -0.115   0.002  -0.129
   41       -0.016  -0.114   0.003  -0.128
   42       -0.016  -0.113   0.002  -0.127
   43       -0.016  -0.115   0.002  -0.128
   44       -0.016  -0.115   0.002  -0.128
   45       -0.017  -0.114   0.003  -0.128
   46       -0.014  -0.105   0.000  -0.119
   47       -0.016  -0.115   0.002  -0.129
   48        0.010  -0.003   2.227   2.233
--------------------------------------------------
tot         -0.267  -2.288  48.651  46.097
 

 total amount of memory used by VASP MPI-rank0   533559. kBytes
=======================================================================

   base      :      30000. kBytes
   nonl-proj :      79134. kBytes
   fftplans  :       3577. kBytes
   grid      :      10028. kBytes
   one-center:        248. kBytes
   wavefun   :     410572. kBytes
 
  
  
 General timing and accounting informations for this job:
 ========================================================
  
                  Total CPU time used (sec):    14032.610
                            User time (sec):    13917.852
                          System time (sec):      114.759
                         Elapsed time (sec):    14095.091
  
                   Maximum memory used (kb):      768796.
                   Average memory used (kb):           0.
  
                          Minor page faults:        77260
                          Major page faults:          610
                 Voluntary context switches:         8319
