 running on   24 total cores
 distrk:  each k-point on   24 cores,    1 groups
 distr:  one band on    6 cores,    4 groups
 using from now: INCAR     
 vasp.6.1.1 19Jun20 (build Nov 30 2020 11:51:22) complex                        
  
 POSCAR found type information on POSCAR NiGeMnFe
 POSCAR found :  4 types and      48 ions
 scaLAPACK will be used
 -----------------------------------------------------------------------------
|                                                                             |
|               ----> ADVICE to this user running VASP <----                  |
|                                                                             |
|     You have a (more or less) 'large supercell' and for larger cells it     |
|     might be more efficient to use real-space projection operators.         |
|     Therefore, try LREAL= Auto in the INCAR file.                           |
|     Mind: For very accurate calculation, you might also keep the            |
|     reciprocal projection scheme (i.e. LREAL=.FALSE.).                      |
|                                                                             |
 -----------------------------------------------------------------------------

 LDA part: xc-table for Pade appr. of Perdew
 POSCAR, INCAR and KPOINTS ok, starting setup
 FFT: planning ...
 WAVECAR not read
 entering main loop
       N       E                     dE             d eps       ncg     rms          rms(c)
DAV:   1     0.288672348408E+04    0.28867E+04   -0.10746E+05 99360   0.106E+03
DAV:   2     0.199061897061E+03   -0.26877E+04   -0.23922E+04 99360   0.271E+02
DAV:   3    -0.256878513931E+03   -0.45594E+03   -0.37590E+03 99504   0.127E+02
DAV:   4    -0.290274684863E+03   -0.33396E+02   -0.31920E+02121520   0.408E+01
DAV:   5    -0.291132944496E+03   -0.85826E+00   -0.85629E+00122232   0.676E+00    0.106E+02
DAV:   6    -0.365490426412E+03   -0.74357E+02   -0.20206E+02125120   0.101E+02    0.105E+02
DAV:   7    -0.321721494932E+03    0.43769E+02   -0.18638E+02121816   0.994E+01    0.769E+01
DAV:   8    -0.330177053334E+03   -0.84556E+01   -0.35542E+01133552   0.641E+01    0.735E+01
DAV:   9    -0.315839623960E+03    0.14337E+02   -0.34139E+01139552   0.499E+01    0.462E+01
DAV:  10    -0.317044175686E+03   -0.12046E+01   -0.23300E+01136688   0.452E+01    0.525E+01
DAV:  11    -0.306484006075E+03    0.10560E+02   -0.16351E+01147432   0.294E+01    0.213E+01
DAV:  12    -0.311131370453E+03   -0.46474E+01   -0.49912E+00140528   0.222E+01    0.231E+01
DAV:  13    -0.310256281061E+03    0.87509E+00   -0.61422E+00140944   0.200E+01    0.147E+01
DAV:  14    -0.313761984918E+03   -0.35057E+01   -0.56306E+00147216   0.169E+01    0.215E+01
DAV:  15    -0.311828416504E+03    0.19336E+01   -0.24836E+00155824   0.142E+01    0.643E+00
DAV:  16    -0.312158588676E+03   -0.33017E+00   -0.83454E-01164528   0.559E+00    0.782E+00
DAV:  17    -0.311992908374E+03    0.16568E+00   -0.36431E-01131256   0.506E+00    0.414E+00
DAV:  18    -0.312098935760E+03   -0.10603E+00   -0.14910E-01140816   0.292E+00    0.354E+00
DAV:  19    -0.312148191939E+03   -0.49256E-01   -0.14950E-01134424   0.301E+00    0.451E+00
DAV:  20    -0.312151643372E+03   -0.34514E-02   -0.39122E-02150176   0.119E+00    0.355E+00
DAV:  21    -0.312183158709E+03   -0.31515E-01   -0.46333E-02131960   0.229E+00    0.376E+00
DAV:  22    -0.312149853541E+03    0.33305E-01   -0.26340E-02143088   0.192E+00    0.225E+00
DAV:  23    -0.312137221429E+03    0.12632E-01   -0.23263E-02174176   0.833E-01    0.135E+00
DAV:  24    -0.312135842444E+03    0.13790E-02   -0.96430E-03137384   0.855E-01    0.110E+00
DAV:  25    -0.312131891337E+03    0.39511E-02   -0.48978E-03145784   0.395E-01    0.501E-01
DAV:  26    -0.312132085084E+03   -0.19375E-03   -0.12297E-03134400   0.334E-01    0.436E-01
DAV:  27    -0.312132047112E+03    0.37972E-04   -0.71916E-04136072   0.267E-01    0.304E-01
DAV:  28    -0.312131977358E+03    0.69754E-04   -0.43056E-04167840   0.845E-02    0.163E-01
DAV:  29    -0.312131912491E+03    0.64867E-04   -0.12756E-04150056   0.434E-02    0.657E-02
DAV:  30    -0.312131935500E+03   -0.23009E-04   -0.33798E-05145272   0.345E-02    0.496E-02
DAV:  31    -0.312131936240E+03   -0.73956E-06   -0.18503E-05124680   0.132E-02    0.389E-02
DAV:  32    -0.312131932704E+03    0.35365E-05   -0.54795E-06 81392   0.853E-03    0.187E-02
DAV:  33    -0.312131932139E+03    0.56429E-06   -0.20168E-06 64384   0.468E-03
   1 F= -.31213193E+03 E0= -.31213586E+03  d E =0.117710E-01  mag=    42.3149
