 vasp.6.1.1 19Jun20 (build Nov 30 2020 11:51:22) complex                        
  
 executed on             LinuxIFC date 2021.03.23  21:56:10
 running on   24 total cores
 distrk:  each k-point on   24 cores,    1 groups
 distr:  one band on NCORE=   6 cores,    4 groups


--------------------------------------------------------------------------------------------------------


 INCAR:
 POTCAR:    PAW_PBE Ni 02Aug2007                  
 POTCAR:    PAW_PBE Ge 05Jan2001                  
 POTCAR:    PAW_PBE Mn 06Sep2000                  
 POTCAR:    PAW_PBE Fe 06Sep2000                  
 POTCAR:    PAW_PBE Ni 02Aug2007                  
   SHA256 =  0534bc51ca8003dfef23f56753fef9fdd3e22eac8d719fccacb59f3e6b7a69c7 Ni/POTCAR             
   COPYR  = (c) Copyright 02Aug2007 Georg Kresse                                                    
   COPYR  = This file is part of the software VASP. Any use, copying, and all other rights are regul
   COPYR  = If you do not have a valid VASP license, you may not use, copy or distribute this file. 
   VRHFIN =Ni:                                                                                      
   LEXCH  = PE                                                                                      
   EATOM  =  1077.6739 eV,   79.2068 Ry                                                             
                                                                                                    
   TITEL  = PAW_PBE Ni 02Aug2007                                                                    
   LULTRA =        F    use ultrasoft PP ?                                                          
   IUNSCR =        1    unscreen: 0-lin 1-nonlin 2-no                                               
   RPACOR =    2.000    partial core radius                                                         
   POMASS =   58.690; ZVAL   =   10.000    mass and valenz                                          
   RCORE  =    2.300    outmost cutoff radius                                                       
   RWIGS  =    2.430; RWIGS  =    1.286    wigner-seitz radius (au A)                               
   ENMAX  =  269.532; ENMIN  =  202.149 eV                                                          
   RCLOC  =    1.201    cutoff for local pot                                                        
   LCOR   =        T    correct aug charges                                                         
   LPAW   =        T    paw PP                                                                      
   EAUG   =  544.565                                                                                
   DEXC   =    0.000                                                                                
   RMAX   =    2.357    core radius for proj-oper                                                   
   RAUG   =    1.300    factor for augmentation sphere                                              
   RDEP   =    2.390    radius for radial grids                                                     
   RDEPT  =    1.838    core radius for aug-charge                                                  
                                                                                                    
   Atomic configuration                                                                             
    9 entries                                                                                       
     n  l   j            E        occ.                                                              
     1  0  0.50     -8206.4253   2.0000                                                             
     2  0  0.50      -976.1748   2.0000                                                             
     2  1  1.50      -839.0571   6.0000                                                             
     3  0  0.50      -105.9991   2.0000                                                             
     3  1  1.50       -66.4603   6.0000                                                             
     3  2  2.50        -4.6458   9.0000                                                             
     4  0  0.50        -4.4926   1.0000                                                             
     4  1  1.50        -4.0817   0.0000                                                             
     4  3  2.50        -1.3606   0.0000                                                             
   Description                                                                                      
     l       E           TYP  RCUT    TYP  RCUT                                                     
     2     -4.6457903     23  2.300                                                                 
     2     -6.0063729     23  2.300                                                                 
     0     -4.4925590     23  2.300                                                                 
     0      5.0102601     23  2.300                                                                 
     1     -2.7211652     23  2.300                                                                 
     1     16.5183231     23  2.300                                                                 
  local pseudopotential read in
  partial core-charges read in
  partial kinetic energy density read in
  atomic valenz-charges read in
  non local Contribution for L=           2  read in
    real space projection operators read in
  non local Contribution for L=           2  read in
    real space projection operators read in
  non local Contribution for L=           0  read in
    real space projection operators read in
  non local Contribution for L=           0  read in
    real space projection operators read in
  non local Contribution for L=           1  read in
    real space projection operators read in
  non local Contribution for L=           1  read in
    real space projection operators read in
    PAW grid and wavefunctions read in
 
   number of l-projection  operators is LMAX  =           6
   number of lm-projection operators is LMMAX =          18
 
 POTCAR:    PAW_PBE Ge 05Jan2001                  
   SHA256 =  7ff11deedcda39f1950abeda971a84a1f98a719a97bc9679a0df455c008734f8 Ge/POTCAR             
   COPYR  = (c) Copyright 05Jan2001 Georg Kresse                                                    
   COPYR  = This file is part of the software VASP. Any use, copying, and all other rights are regul
   COPYR  = If you do not have a valid VASP license, you may not use, copy or distribute this file. 
   VRHFIN =Ge: s2p2                                                                                 
   LEXCH  = PE                                                                                      
   EATOM  =   104.9960 eV,    7.7170 Ry                                                             
                                                                                                    
   TITEL  = PAW_PBE Ge 05Jan2001                                                                    
   LULTRA =        F    use ultrasoft PP ?                                                          
   IUNSCR =        1    unscreen: 0-lin 1-nonlin 2-no                                               
   RPACOR =    2.170    partial core radius                                                         
   POMASS =   72.610; ZVAL   =    4.000    mass and valenz                                          
   RCORE  =    2.300    outmost cutoff radius                                                       
   RWIGS  =    2.300; RWIGS  =    1.217    wigner-seitz radius (au A)                               
   ENMAX  =  173.807; ENMIN  =  130.355 eV                                                          
   ICORE  =        3    local potential                                                             
   LCOR   =        T    correct aug charges                                                         
   LPAW   =        T    paw PP                                                                      
   EAUG   =  385.843                                                                                
   DEXC   =    0.000                                                                                
   RMAX   =    2.342    core radius for proj-oper                                                   
   RAUG   =    1.300    factor for augmentation sphere                                              
   RDEP   =    2.318    radius for radial grids                                                     
   RDEPT  =    2.103    core radius for aug-charge                                                  
                                                                                                    
   Atomic configuration                                                                             
   10 entries                                                                                       
     n  l   j            E        occ.                                                              
     1  0  0.50    -10959.8463   2.0000                                                             
     2  0  0.50     -1371.6056   2.0000                                                             
     2  1  1.50     -1198.4791   6.0000                                                             
     3  0  0.50      -168.4733   2.0000                                                             
     3  1  1.50      -115.6019   6.0000                                                             
     3  2  2.50       -29.3106  10.0000                                                             
     4  0  0.50       -11.7309   2.0000                                                             
     4  1  0.50        -3.8952   2.0000                                                             
     4  2  1.50        -4.0817   0.0000                                                             
     4  3  2.50        -4.0817   0.0000                                                             
   Description                                                                                      
     l       E           TYP  RCUT    TYP  RCUT                                                     
     0    -11.7309493     23  2.300                                                                 
     0     -7.4578696     23  2.300                                                                 
     1     -3.8952261     23  2.300                                                                 
     1      6.1178114     23  2.300                                                                 
     2     -4.0817478     23  2.300                                                                 
     3     -1.3605826      7  2.300                                                                 
  local pseudopotential read in
  partial core-charges read in
  partial kinetic energy density read in
  atomic valenz-charges read in
  non local Contribution for L=           0  read in
    real space projection operators read in
  non local Contribution for L=           0  read in
    real space projection operators read in
  non local Contribution for L=           1  read in
    real space projection operators read in
  non local Contribution for L=           1  read in
    real space projection operators read in
  non local Contribution for L=           2  read in
    real space projection operators read in
    PAW grid and wavefunctions read in
 
   number of l-projection  operators is LMAX  =           5
   number of lm-projection operators is LMMAX =          13
 
 POTCAR:    PAW_PBE Mn 06Sep2000                  
   SHA256 =  791c87526310ff945dc83749a51ee60ee299d345ff72743aeb14609b9ed68bfc Mn/POTCAR             
   COPYR  = (c) Copyright 06Sep2000 Georg Kresse                                                    
   COPYR  = This file is part of the software VASP. Any use, copying, and all other rights are regul
   COPYR  = If you do not have a valid VASP license, you may not use, copy or distribute this file. 
   VRHFIN =Mn: d6 s1                                                                                
   LEXCH  = PE                                                                                      
   EATOM  =   416.7541 eV,   30.6306 Ry                                                             
                                                                                                    
   TITEL  = PAW_PBE Mn 06Sep2000                                                                    
   LULTRA =        F    use ultrasoft PP ?                                                          
   IUNSCR =        1    unscreen: 0-lin 1-nonlin 2-no                                               
   RPACOR =    2.000    partial core radius                                                         
   POMASS =   54.938; ZVAL   =    7.000    mass and valenz                                          
   RCORE  =    2.300    outmost cutoff radius                                                       
   RWIGS  =    2.500; RWIGS  =    1.323    wigner-seitz radius (au A)                               
   ENMAX  =  269.864; ENMIN  =  202.398 eV                                                          
   RCLOC  =    1.725    cutoff for local pot                                                        
   LCOR   =        T    correct aug charges                                                         
   LPAW   =        T    paw PP                                                                      
   EAUG   =  500.711                                                                                
   DEXC   =    0.000                                                                                
   RMAX   =    2.343    core radius for proj-oper                                                   
   RAUG   =    1.300    factor for augmentation sphere                                              
   RDEP   =    2.338    radius for radial grids                                                     
   RDEPT  =    1.911    core radius for aug-charge                                                  
                                                                                                    
   Atomic configuration                                                                             
    9 entries                                                                                       
     n  l   j            E        occ.                                                              
     1  0  0.50     -6424.8288   2.0000                                                             
     2  0  0.50      -739.1154   2.0000                                                             
     2  1  1.50      -625.3949   6.0000                                                             
     3  0  0.50       -81.6100   2.0000                                                             
     3  1  1.50       -50.4667   6.0000                                                             
     3  2  2.50        -3.3745   6.0000                                                             
     4  0  0.50        -4.1331   1.0000                                                             
     4  1  0.50        -4.0817   0.0000                                                             
     4  3  2.50        -1.3606   0.0000                                                             
   Description                                                                                      
     l       E           TYP  RCUT    TYP  RCUT                                                     
     2     -3.3744664     23  2.300                                                                 
     2     -4.7350490     23  2.300                                                                 
     0     -4.1331408     23  2.300                                                                 
     0      7.6656614     23  2.300                                                                 
     1     -2.7211652     23  2.300                                                                 
     1     20.4087390     23  2.300                                                                 
  local pseudopotential read in
  partial core-charges read in
  partial kinetic energy density read in
  atomic valenz-charges read in
  non local Contribution for L=           2  read in
    real space projection operators read in
  non local Contribution for L=           2  read in
    real space projection operators read in
  non local Contribution for L=           0  read in
    real space projection operators read in
  non local Contribution for L=           0  read in
    real space projection operators read in
  non local Contribution for L=           1  read in
    real space projection operators read in
  non local Contribution for L=           1  read in
    real space projection operators read in
    PAW grid and wavefunctions read in
 
   number of l-projection  operators is LMAX  =           6
   number of lm-projection operators is LMMAX =          18
 
 POTCAR:    PAW_PBE Fe 06Sep2000                  
   SHA256 =  cd5a22d9368cc8b5cc476bea79732366149640da08ac9009b0e1b7fc627eea28 Fe/POTCAR             
   COPYR  = (c) Copyright 06Sep2000 Georg Kresse                                                    
   COPYR  = This file is part of the software VASP. Any use, copying, and all other rights are regul
   COPYR  = If you do not have a valid VASP license, you may not use, copy or distribute this file. 
   VRHFIN =Fe:  d7 s1                                                                               
   LEXCH  = PE                                                                                      
   EATOM  =   594.3153 eV,   43.6809 Ry                                                             
                                                                                                    
   TITEL  = PAW_PBE Fe 06Sep2000                                                                    
   LULTRA =        F    use ultrasoft PP ?                                                          
   IUNSCR =        1    unscreen: 0-lin 1-nonlin 2-no                                               
   RPACOR =    2.000    partial core radius                                                         
   POMASS =   55.847; ZVAL   =    8.000    mass and valenz                                          
   RCORE  =    2.300    outmost cutoff radius                                                       
   RWIGS  =    2.460; RWIGS  =    1.302    wigner-seitz radius (au A)                               
   ENMAX  =  267.882; ENMIN  =  200.911 eV                                                          
   RCLOC  =    1.701    cutoff for local pot                                                        
   LCOR   =        T    correct aug charges                                                         
   LPAW   =        T    paw PP                                                                      
   EAUG   =  511.368                                                                                
   DEXC   =    0.000                                                                                
   RMAX   =    2.356    core radius for proj-oper                                                   
   RAUG   =    1.300    factor for augmentation sphere                                              
   RDEP   =    2.442    radius for radial grids                                                     
   RDEPT  =    1.890    core radius for aug-charge                                                  
                                                                                                    
   Atomic configuration                                                                             
    9 entries                                                                                       
     n  l   j            E        occ.                                                              
     1  0  0.50     -6993.8440   2.0000                                                             
     2  0  0.50      -814.6047   2.0000                                                             
     2  1  1.50      -693.3689   6.0000                                                             
     3  0  0.50       -89.4732   2.0000                                                             
     3  1  1.50       -55.6373   6.0000                                                             
     3  2  2.50        -3.8151   7.0000                                                             
     4  0  0.50        -4.2551   1.0000                                                             
     4  1  1.50        -3.4015   0.0000                                                             
     4  3  2.50        -1.3606   0.0000                                                             
   Description                                                                                      
     l       E           TYP  RCUT    TYP  RCUT                                                     
     2     -3.8151135     23  2.300                                                                 
     2     -5.1756961     23  2.300                                                                 
     0     -4.2550963     23  2.300                                                                 
     0      7.2035603     23  2.300                                                                 
     1     -2.7211652     23  2.300                                                                 
     1     18.4316424     23  2.300                                                                 
  local pseudopotential read in
  partial core-charges read in
  partial kinetic energy density read in
  atomic valenz-charges read in
  non local Contribution for L=           2  read in
    real space projection operators read in
  non local Contribution for L=           2  read in
    real space projection operators read in
  non local Contribution for L=           0  read in
    real space projection operators read in
  non local Contribution for L=           0  read in
    real space projection operators read in
  non local Contribution for L=           1  read in
    real space projection operators read in
  non local Contribution for L=           1  read in
    real space projection operators read in
    PAW grid and wavefunctions read in
 
   number of l-projection  operators is LMAX  =           6
   number of lm-projection operators is LMMAX =          18
 
 -----------------------------------------------------------------------------
|                                                                             |
|               ----> ADVICE to this user running VASP <----                  |
|                                                                             |
|     You have a (more or less) 'large supercell' and for larger cells it     |
|     might be more efficient to use real-space projection operators.         |
|     Therefore, try LREAL= Auto in the INCAR file.                           |
|     Mind: For very accurate calculation, you might also keep the            |
|     reciprocal projection scheme (i.e. LREAL=.FALSE.).                      |
|                                                                             |
 -----------------------------------------------------------------------------

  PAW_PBE Ni 02Aug2007                  :
 energy of atom  1       EATOM=-1077.6739
 kinetic energy error for atom=    0.0038 (will be added to EATOM!!)
  PAW_PBE Ge 05Jan2001                  :
 energy of atom  2       EATOM= -104.9960
 kinetic energy error for atom=    0.0003 (will be added to EATOM!!)
  PAW_PBE Mn 06Sep2000                  :
 energy of atom  3       EATOM= -416.7541
 kinetic energy error for atom=    0.0033 (will be added to EATOM!!)
  PAW_PBE Fe 06Sep2000                  :
 energy of atom  4       EATOM= -594.3153
 kinetic energy error for atom=    0.0034 (will be added to EATOM!!)
 
 
 POSCAR: MnFeNiGe_hex
  positions in direct lattice
  velocities in cartesian coordinates
 exchange correlation table for  LEXCH =        8
   RHO(1)=    0.500       N(1)  =     2000
   RHO(2)=  100.500       N(2)  =     4000
 


--------------------------------------------------------------------------------------------------------


 ion  position               nearest neighbor table
   1  0.667  0.833  0.375-  27 2.31  29 2.31  23 2.31  17 2.57  26 2.57  36 2.65  45 2.65  38 2.65
                            46 2.65  43 2.65  48 2.65
   2  0.333  0.167  0.625-  28 2.31  30 2.31  24 2.31  25 2.57  18 2.57  39 2.65  44 2.65  46 2.65
                            48 2.65  37 2.65  45 2.65
   3  0.167  0.833  0.375-  25 2.31  23 2.31  29 2.31  28 2.57  19 2.57  40 2.65  47 2.65  43 2.65
                            48 2.65  38 2.65  46 2.65
   4  0.833  0.167  0.625-  26 2.31  24 2.31  30 2.31  27 2.57  20 2.57  39 2.65  44 2.65  46 2.65
                            48 2.65  47 2.65  41 2.65
   5  0.167  0.333  0.375-  29 2.31  27 2.31  25 2.31  24 2.57  21 2.57  43 2.65  48 2.65  47 2.65
                            40 2.65  36 2.65  45 2.65
   6  0.833  0.667  0.625-  30 2.31  28 2.31  26 2.31  23 2.57  22 2.57  37 2.65  41 2.65  45 2.65
                            47 2.65  44 2.65  48 2.65
   7  0.833  0.667  0.125-  31 2.31  19 2.31  17 2.31  23 2.57  22 2.57  33 2.65  35 2.65  36 2.65
                            40 2.65  42 2.65  43 2.65
   8  0.167  0.333  0.875-  18 2.31  32 2.31  20 2.31  24 2.57  21 2.57  42 2.65  44 2.65  35 2.65
                            41 2.65  37 2.65  33 2.65
   9  0.333  0.167  0.125-  19 2.31  31 2.31  21 2.31  25 2.57  18 2.57  34 2.65  38 2.65  42 2.65
                            43 2.65  36 2.65  33 2.65
  10  0.667  0.833  0.875-  20 2.31  32 2.31  22 2.31  26 2.57  17 2.57  33 2.65  37 2.65  34 2.65
                            39 2.65  42 2.65  44 2.65
  11  0.833  0.167  0.125-  17 2.31  21 2.31  31 2.31  27 2.57  20 2.57  34 2.65  38 2.65  42 2.65
                            43 2.65  35 2.65  40 2.65
  12  0.167  0.833  0.875-  18 2.31  22 2.31  32 2.31  28 2.57  19 2.57  35 2.65  41 2.65  42 2.65
                            44 2.65  39 2.65  34 2.65
  13  0.333  0.667  0.125-  21 2.31  17 2.31  19 2.31  29 2.57  32 2.57  33 2.65  35 2.65  36 2.65
                            40 2.65  38 2.65  34 2.65
  14  0.667  0.333  0.875-  22 2.31  20 2.31  18 2.31  30 2.57  31 2.57  34 2.65  39 2.65  37 2.65
                            33 2.65  35 2.65  41 2.65
  15  0.667  0.333  0.375-  23 2.31  25 2.31  27 2.31  30 2.57  31 2.57  38 2.65  46 2.65  45 2.65
                            36 2.65  40 2.65  47 2.65
  16  0.333  0.667  0.625-  24 2.31  26 2.31  28 2.31  29 2.57  32 2.57  37 2.65  41 2.65  45 2.65
                            47 2.65  46 2.65  39 2.65
  17  0.667  0.833  0.125-  11 2.31  13 2.31   7 2.31   1 2.57  10 2.57  33 2.65  36 2.65  34 2.65
                            38 2.65  42 2.65  43 2.65
  18  0.333  0.167  0.875-   8 2.31  12 2.31  14 2.31   2 2.57   9 2.57  42 2.65  44 2.65  33 2.65
                            37 2.65  34 2.65  39 2.65
  19  0.167  0.833  0.125-   9 2.31   7 2.31  13 2.31  12 2.57   3 2.57  35 2.65  40 2.65  42 2.65
                            43 2.65  38 2.65  34 2.65
  20  0.833  0.167  0.875-  10 2.31   8 2.31  14 2.31  11 2.57   4 2.57  34 2.65  39 2.65  42 2.65
                            44 2.65  35 2.65  41 2.65
  21  0.167  0.333  0.125-  13 2.31  11 2.31   9 2.31   8 2.57   5 2.57  42 2.65  43 2.65  35 2.65
                            40 2.65  36 2.65  33 2.65
  22  0.833  0.667  0.875-  14 2.31  12 2.31  10 2.31   7 2.57   6 2.57  33 2.65  35 2.65  37 2.65
                            41 2.65  42 2.65  44 2.65
  23  0.833  0.667  0.375-  15 2.31   3 2.31   1 2.31   7 2.57   6 2.57  36 2.65  40 2.65  45 2.65
                            47 2.65  43 2.65  48 2.65
  24  0.167  0.333  0.625-  16 2.31   4 2.31   2 2.31   8 2.57   5 2.57  44 2.65  48 2.65  47 2.65
                            41 2.65  37 2.65  45 2.65
  25  0.333  0.167  0.375-   3 2.31  15 2.31   5 2.31   9 2.57   2 2.57  38 2.65  43 2.65  46 2.65
                            48 2.65  36 2.65  45 2.65
  26  0.667  0.833  0.625-   4 2.31  16 2.31   6 2.31  10 2.57   1 2.57  37 2.65  45 2.65  39 2.65
                            46 2.65  44 2.65  48 2.65
  27  0.833  0.167  0.375-   1 2.31   5 2.31  15 2.31  11 2.57   4 2.57  38 2.65  43 2.65  46 2.65
                            48 2.65  47 2.65  40 2.65
  28  0.167  0.833  0.625-   2 2.31   6 2.31  16 2.31  12 2.57   3 2.57  41 2.65  47 2.65  44 2.65
                            48 2.65  39 2.65  46 2.65
  29  0.333  0.667  0.375-   5 2.31   1 2.31   3 2.31  13 2.57  16 2.57  36 2.65  40 2.65  45 2.65
                            47 2.65  46 2.65  38 2.65
  30  0.667  0.333  0.625-   6 2.31   2 2.31   4 2.31  14 2.57  15 2.57  39 2.65  46 2.65  45 2.65
                            37 2.65  41 2.65  47 2.65
  31  0.667  0.333  0.125-   7 2.31   9 2.31  11 2.31  14 2.57  15 2.57  34 2.65  38 2.65  36 2.65
                            33 2.65  35 2.65  40 2.65
  32  0.333  0.667  0.875-   8 2.31  10 2.31  12 2.31  13 2.57  16 2.57  33 2.65  35 2.65  37 2.65
                            41 2.65  39 2.65  34 2.65
  33  0.500  0.500  0.000-  36 2.57  37 2.57  10 2.65  17 2.65   7 2.65  22 2.65  31 2.65  32 2.65
                            13 2.65  14 2.65   9 2.65  18 2.65  21 2.65   8 2.65
  34  0.500  0.000  0.000-  38 2.57  39 2.57  14 2.65  31 2.65  17 2.65  20 2.65  10 2.65  11 2.65
                             9 2.65  13 2.65  32 2.65  19 2.65  12 2.65  18 2.65
  35  0.000  0.500  0.000-  40 2.57  41 2.57  12 2.65  19 2.65   8 2.65  21 2.65  22 2.65  32 2.65
                             7 2.65  13 2.65  20 2.65  11 2.65  31 2.65  14 2.65
  36  0.500  0.500  0.250-  33 2.57  45 2.57   1 2.65  17 2.65   7 2.65  23 2.65  29 2.65  31 2.65
                            13 2.65  15 2.65   9 2.65  25 2.65   5 2.65  21 2.65
  37  0.500  0.500  0.750-  33 2.57  45 2.57  10 2.65  26 2.65  22 2.65   6 2.65  30 2.65  32 2.65
                            14 2.65  16 2.65   2 2.65  18 2.65  24 2.65   8 2.65
  38  0.500  0.000  0.250-  34 2.57  46 2.57  15 2.65  31 2.65  17 2.65  25 2.65  27 2.65   9 2.65
                            11 2.65   1 2.65  29 2.65  13 2.65   3 2.65  19 2.65
  39  0.500  0.000  0.750-  34 2.57  46 2.57  14 2.65  30 2.65  20 2.65  26 2.65   4 2.65  10 2.65
                             2 2.65  16 2.65  32 2.65  12 2.65  28 2.65  18 2.65
  40  0.000  0.500  0.250-  35 2.57  47 2.57   3 2.65  19 2.65   5 2.65  21 2.65  23 2.65  29 2.65
                             7 2.65  13 2.65  27 2.65  11 2.65  15 2.65  31 2.65
  41  0.000  0.500  0.750-  35 2.57  47 2.57  12 2.65  28 2.65  22 2.65  24 2.65   8 2.65  32 2.65
                             6 2.65  16 2.65   4 2.65  20 2.65  30 2.65  14 2.65
  42  0.000  0.000  0.000-  43 2.57  44 2.57  18 2.65   8 2.65  21 2.65  19 2.65  20 2.65  11 2.65
                            12 2.65   9 2.65   7 2.65  22 2.65  17 2.65  10 2.65
  43  0.000  0.000  0.250-  42 2.57  48 2.57   5 2.65  21 2.65  19 2.65   3 2.65  25 2.65  27 2.65
                             9 2.65  11 2.65   7 2.65  23 2.65  17 2.65   1 2.65
  44  0.000  0.000  0.750-  42 2.57  48 2.57  18 2.65   8 2.65  24 2.65  20 2.65   2 2.65  28 2.65
                            12 2.65   4 2.65   6 2.65  22 2.65  26 2.65  10 2.65
  45  0.500  0.500  0.500-  36 2.57  37 2.57   1 2.65  26 2.65  23 2.65   6 2.65  29 2.65  30 2.65
                            15 2.65  16 2.65  25 2.65   2 2.65   5 2.65  24 2.65
  46  0.500  0.000  0.500-  38 2.57  39 2.57  15 2.65  30 2.65  25 2.65  26 2.65  27 2.65   2 2.65
                             4 2.65   1 2.65  29 2.65  16 2.65   3 2.65  28 2.65
  47  0.000  0.500  0.500-  40 2.57  41 2.57   3 2.65  28 2.65  23 2.65  24 2.65   5 2.65  29 2.65
                             6 2.65  16 2.65   4 2.65  27 2.65  15 2.65  30 2.65
  48  0.000  0.000  0.500-  43 2.57  44 2.57   5 2.65  24 2.65   3 2.65  25 2.65  27 2.65  28 2.65
                             4 2.65   2 2.65   6 2.65  23 2.65   1 2.65  26 2.65
 
  LATTYP: Found a hexagonal cell.
 ALAT       =     8.0096574141
 C/A-ratio  =     1.2850434344
  
  Lattice vectors:
  
 A1 = (   8.0096574142,   0.0000000000,   0.0000000000)
 A2 = (  -4.0048287071,   6.9365667962,   0.0000000000)
 A3 = (   0.0000000000,   0.0000000000,  10.2927576715)


Analysis of symmetry for initial positions (statically):
=====================================================================
 Subroutine PRICEL returns:
 Original cell was already a primitive cell.
 

 Routine SETGRP: Setting up the symmetry group for a 
 hexagonal supercell.


 Subroutine GETGRP returns: Found 12 space group operations
 (whereof 12 operations were pure point group operations)
 out of a pool of 24 trial point group operations.


The static configuration has the point symmetry D_3d.


Analysis of symmetry for dynamics (positions and initial velocities):
=====================================================================
 Subroutine PRICEL returns:
 Original cell was already a primitive cell.
 

 Routine SETGRP: Setting up the symmetry group for a 
 hexagonal supercell.


 Subroutine GETGRP returns: Found 12 space group operations
 (whereof 12 operations were pure point group operations)
 out of a pool of 24 trial point group operations.


The dynamic configuration has the point symmetry D_3d.


Analysis of structural, dynamic, and magnetic symmetry:
=====================================================================
 Subroutine PRICEL returns:
 Original cell was already a primitive cell.
 

 Routine SETGRP: Setting up the symmetry group for a 
 hexagonal supercell.


 Subroutine GETGRP returns: Found 12 space group operations
 (whereof 12 operations were pure point group operations)
 out of a pool of 24 trial point group operations.


The magnetic configuration has the point symmetry D_3d.


 Subroutine INISYM returns: Found 12 space group operations
 (whereof 12 operations are pure point group operations),
 and found     1 'primitive' translations


----------------------------------------------------------------------------------------

                                     Primitive cell                                     

  volume of cell :     571.8607

  direct lattice vectors                    reciprocal lattice vectors
     8.009657414  0.000000000  0.000000000     0.124849285  0.072081768  0.000000000
    -4.004828707  6.936566796  0.000000000     0.000000000  0.144163536  0.000000000
     0.000000000  0.000000000 10.292757671     0.000000000  0.000000000  0.097155693

  length of vectors
     8.009657414  8.009657414 10.292757671     0.144163536  0.144163536  0.097155693

  position of ions in fractional coordinates (direct lattice)
     0.666666666  0.833333333  0.375000000
     0.333333333  0.166666666  0.625000000
     0.166666666  0.833333333  0.375000000
     0.833333333  0.166666666  0.625000000
     0.166666666  0.333333333  0.375000000
     0.833333333  0.666666666  0.625000000
     0.833333333  0.666666666  0.125000000
     0.166666666  0.333333333  0.875000000
     0.333333333  0.166666666  0.125000000
     0.666666666  0.833333333  0.875000000
     0.833333333  0.166666666  0.125000000
     0.166666666  0.833333333  0.875000000
     0.333333333  0.666666666  0.125000000
     0.666666666  0.333333333  0.875000000
     0.666666666  0.333333333  0.375000000
     0.333333333  0.666666666  0.625000000
     0.666666666  0.833333333  0.125000000
     0.333333313  0.166666666  0.875000000
     0.166666666  0.833333333  0.125000000
     0.833333333  0.166666666  0.875000000
     0.166666666  0.333333333  0.125000000
     0.833333333  0.666666666  0.875000000
     0.833333333  0.666666666  0.375000000
     0.166666666  0.333333333  0.625000000
     0.333333333  0.166666666  0.375000000
     0.666666666  0.833333333  0.625000000
     0.833333333  0.166666666  0.375000000
     0.166666666  0.833333333  0.625000000
     0.333333333  0.666666666  0.375000000
     0.666666666  0.333333333  0.625000000
     0.666666666  0.333333333  0.125000000
     0.333333333  0.666666666  0.875000000
     0.500000000  0.500000000  0.000000000
     0.500000000  0.000000000  0.000000000
     0.000000000  0.500000000  0.000000000
     0.500000000  0.500000000  0.250000000
     0.500000000  0.500000000  0.750000000
     0.500000000  0.000000000  0.250000000
     0.500000000  0.000000000  0.750000000
     0.000000000  0.500000000  0.250000000
     0.000000000  0.500000000  0.750000000
     0.000000000  0.000000000  0.000000000
     0.000000000  0.000000000  0.250000000
     0.000000000  0.000000000  0.750000000
     0.500000000  0.500000000  0.500000000
     0.500000000  0.000000000  0.500000000
     0.000000000  0.500000000  0.500000000
     0.000000000  0.000000000  0.500000000

  ion indices of the primitive-cell ions
   primitive index   ion index
                 1           1
                 2           2
                 3           3
                 4           4
                 5           5
                 6           6
                 7           7
                 8           8
                 9           9
                10          10
                11          11
                12          12
                13          13
                14          14
                15          15
                16          16
                17          17
                18          18
                19          19
                20          20
                21          21
                22          22
                23          23
                24          24
                25          25
                26          26
                27          27
                28          28
                29          29
                30          30
                31          31
                32          32
                33          33
                34          34
                35          35
                36          36
                37          37
                38          38
                39          39
                40          40
                41          41
                42          42
                43          43
                44          44
                45          45
                46          46
                47          47
                48          48

----------------------------------------------------------------------------------------

 
 
 KPOINTS: Auto                                    

Automatic generation of k-mesh.
Space group operators:
 irot       det(A)        alpha          n_x          n_y          n_z        tau_x        tau_y        tau_z
    1     1.000000     0.000000     1.000000     0.000000     0.000000     0.000000     0.000000     0.000000
    2    -1.000000     0.000000     1.000000     0.000000     0.000000     0.000000     0.000000     0.000000
    3     1.000000   120.000000     0.000000     0.000000    -1.000000     0.000000     0.000000     0.000000
    4    -1.000000   120.000000     0.000000     0.000000    -1.000000     0.000000     0.000000     0.000000
    5     1.000000   120.000000     0.000000     0.000000     1.000000     0.000000     0.000000     0.000000
    6    -1.000000   120.000000     0.000000     0.000000     1.000000     0.000000     0.000000     0.000000
    7     1.000000   180.000000     1.000000     0.000000     0.000000     0.000000     0.000000     0.000000
    8    -1.000000   180.000000     1.000000     0.000000     0.000000     0.000000     0.000000     0.000000
    9     1.000000   180.000000     0.500000    -0.866025     0.000000     0.000000     0.000000     0.000000
   10    -1.000000   180.000000     0.500000    -0.866025     0.000000     0.000000     0.000000     0.000000
   11     1.000000   180.000000    -0.500000    -0.866025     0.000000     0.000000     0.000000     0.000000
   12    -1.000000   180.000000    -0.500000    -0.866025     0.000000     0.000000     0.000000     0.000000
 
 Subroutine IBZKPT returns following result:
 ===========================================
 
 Found     69 irreducible k-points:
 
 Following reciprocal coordinates:
            Coordinates               Weight
  0.000000  0.000000  0.000000      1.000000
  0.111111  0.000000  0.000000      6.000000
  0.222222  0.000000  0.000000      6.000000
  0.333333  0.000000  0.000000      6.000000
  0.444444  0.000000  0.000000      6.000000
  0.111111  0.111111  0.000000      6.000000
  0.222222  0.111111  0.000000     12.000000
  0.333333  0.111111  0.000000     12.000000
  0.444444  0.111111  0.000000      6.000000
  0.222222  0.222222  0.000000      6.000000
  0.333333  0.222222  0.000000     12.000000
  0.333333  0.333333  0.000000      2.000000
  0.000000  0.000000  0.142857      2.000000
  0.111111  0.000000  0.142857      6.000000
  0.111111 -0.111111  0.142857      6.000000
  0.222222  0.000000  0.142857      6.000000
  0.222222 -0.222222  0.142857      6.000000
  0.333333  0.000000  0.142857      6.000000
  0.333333 -0.333333  0.142857      6.000000
  0.444444  0.000000  0.142857      6.000000
  0.444444 -0.444444  0.142857      6.000000
  0.111111  0.111111  0.142857     12.000000
  0.222222  0.111111  0.142857     12.000000
  0.333333 -0.222222  0.142857     12.000000
  0.333333  0.111111  0.142857     12.000000
  0.444444 -0.333333  0.142857     12.000000
  0.444444  0.111111  0.142857     12.000000
  0.222222  0.222222  0.142857     12.000000
  0.333333  0.222222  0.142857     12.000000
 -0.444444 -0.333333  0.142857     12.000000
  0.333333  0.333333  0.142857      4.000000
  0.000000  0.000000  0.285714      2.000000
  0.111111  0.000000  0.285714      6.000000
  0.111111 -0.111111  0.285714      6.000000
  0.222222  0.000000  0.285714      6.000000
  0.222222 -0.222222  0.285714      6.000000
  0.333333  0.000000  0.285714      6.000000
  0.333333 -0.333333  0.285714      6.000000
  0.444444  0.000000  0.285714      6.000000
  0.444444 -0.444444  0.285714      6.000000
  0.111111  0.111111  0.285714     12.000000
  0.222222  0.111111  0.285714     12.000000
  0.333333 -0.222222  0.285714     12.000000
  0.333333  0.111111  0.285714     12.000000
  0.444444 -0.333333  0.285714     12.000000
  0.444444  0.111111  0.285714     12.000000
  0.222222  0.222222  0.285714     12.000000
  0.333333  0.222222  0.285714     12.000000
 -0.444444 -0.333333  0.285714     12.000000
  0.333333  0.333333  0.285714      4.000000
  0.000000  0.000000  0.428571      2.000000
  0.111111  0.000000  0.428571      6.000000
  0.111111 -0.111111  0.428571      6.000000
  0.222222  0.000000  0.428571      6.000000
  0.222222 -0.222222  0.428571      6.000000
  0.333333  0.000000  0.428571      6.000000
  0.333333 -0.333333  0.428571      6.000000
  0.444444  0.000000  0.428571      6.000000
  0.444444 -0.444444  0.428571      6.000000
  0.111111  0.111111  0.428571     12.000000
  0.222222  0.111111  0.428571     12.000000
  0.333333 -0.222222  0.428571     12.000000
  0.333333  0.111111  0.428571     12.000000
  0.444444 -0.333333  0.428571     12.000000
  0.444444  0.111111  0.428571     12.000000
  0.222222  0.222222  0.428571     12.000000
  0.333333  0.222222  0.428571     12.000000
 -0.444444 -0.333333  0.428571     12.000000
  0.333333  0.333333  0.428571      4.000000
 
 Following cartesian coordinates:
            Coordinates               Weight
  0.000000  0.000000  0.000000      1.000000
  0.013595  0.007849  0.000000      6.000000
  0.027189  0.015698  0.000000      6.000000
  0.040784  0.023547  0.000000      6.000000
  0.054379  0.031396  0.000000      6.000000
  0.013595  0.023547  0.000000      6.000000
  0.027189  0.031396  0.000000     12.000000
  0.040784  0.039245  0.000000     12.000000
  0.054379  0.047093  0.000000      6.000000
  0.027189  0.047093  0.000000      6.000000
  0.040784  0.054942  0.000000     12.000000
  0.040784  0.070640  0.000000      2.000000
  0.000000  0.000000  0.013602      2.000000
  0.013595  0.007849  0.013602      6.000000
  0.013595 -0.007849  0.013602      6.000000
  0.027189  0.015698  0.013602      6.000000
  0.027189 -0.015698  0.013602      6.000000
  0.040784  0.023547  0.013602      6.000000
  0.040784 -0.023547  0.013602      6.000000
  0.054379  0.031396  0.013602      6.000000
  0.054379 -0.031396  0.013602      6.000000
  0.013595  0.023547  0.013602     12.000000
  0.027189  0.031396  0.013602     12.000000
  0.040784 -0.007849  0.013602     12.000000
  0.040784  0.039245  0.013602     12.000000
  0.054379 -0.015698  0.013602     12.000000
  0.054379  0.047093  0.013602     12.000000
  0.027189  0.047093  0.013602     12.000000
  0.040784  0.054942  0.013602     12.000000
 -0.054379 -0.078489  0.013602     12.000000
  0.040784  0.070640  0.013602      4.000000
  0.000000  0.000000  0.027204      2.000000
  0.013595  0.007849  0.027204      6.000000
  0.013595 -0.007849  0.027204      6.000000
  0.027189  0.015698  0.027204      6.000000
  0.027189 -0.015698  0.027204      6.000000
  0.040784  0.023547  0.027204      6.000000
  0.040784 -0.023547  0.027204      6.000000
  0.054379  0.031396  0.027204      6.000000
  0.054379 -0.031396  0.027204      6.000000
  0.013595  0.023547  0.027204     12.000000
  0.027189  0.031396  0.027204     12.000000
  0.040784 -0.007849  0.027204     12.000000
  0.040784  0.039245  0.027204     12.000000
  0.054379 -0.015698  0.027204     12.000000
  0.054379  0.047093  0.027204     12.000000
  0.027189  0.047093  0.027204     12.000000
  0.040784  0.054942  0.027204     12.000000
 -0.054379 -0.078489  0.027204     12.000000
  0.040784  0.070640  0.027204      4.000000
  0.000000  0.000000  0.040805      2.000000
  0.013595  0.007849  0.040805      6.000000
  0.013595 -0.007849  0.040805      6.000000
  0.027189  0.015698  0.040805      6.000000
  0.027189 -0.015698  0.040805      6.000000
  0.040784  0.023547  0.040805      6.000000
  0.040784 -0.023547  0.040805      6.000000
  0.054379  0.031396  0.040805      6.000000
  0.054379 -0.031396  0.040805      6.000000
  0.013595  0.023547  0.040805     12.000000
  0.027189  0.031396  0.040805     12.000000
  0.040784 -0.007849  0.040805     12.000000
  0.040784  0.039245  0.040805     12.000000
  0.054379 -0.015698  0.040805     12.000000
  0.054379  0.047093  0.040805     12.000000
  0.027189  0.047093  0.040805     12.000000
  0.040784  0.054942  0.040805     12.000000
 -0.054379 -0.078489  0.040805     12.000000
  0.040784  0.070640  0.040805      4.000000
 


--------------------------------------------------------------------------------------------------------




 Dimension of arrays:
   k-points           NKPTS =     69   k-points in BZ     NKDIM =     69   number of bands    NBANDS=    360
   number of dos      NEDOS =    301   number of ions     NIONS =     48
   non local maximal  LDIM  =      6   non local SUM 2l+1 LMDIM =     18
   total plane-waves  NPLWV = 225792
   max r-space proj   IRMAX =      1   max aug-charges    IRDMAX=  21657
   dimension x,y,z NGX =    56 NGY =   56 NGZ =   72
   dimension x,y,z NGXF=   112 NGYF=  112 NGZF=  144
   support grid    NGXF=   112 NGYF=  112 NGZF=  144
   ions per type =              16  16  15   1
   NGX,Y,Z   is equivalent  to a cutoff of  11.62, 11.62, 11.63 a.u.
   NGXF,Y,Z  is equivalent  to a cutoff of  23.25, 23.25, 23.26 a.u.

 SYSTEM =  MnFeNiGe_mag_hex-scf                    
 POSCAR =  MnFeNiGe_hex                            

 Startparameter for this run:
   NWRITE =      2    write-flag & timer
   PREC   = accura    normal or accurate (medium, high low for compatibility)
   ISTART =      0    job   : 0-new  1-cont  2-samecut
   ICHARG =      2    charge: 1-file 2-atom 10-const
   ISPIN  =      2    spin polarized calculation?
   LNONCOLLINEAR =      F non collinear calculations
   LSORBIT =      F    spin-orbit coupling
   INIWAV =      1    electr: 0-lowe 1-rand  2-diag
   LASPH  =      F    aspherical Exc in radial PAW
   METAGGA=      F    non-selfconsistent MetaGGA calc.

 Electronic Relaxation 1
   ENCUT  =  450.0 eV  33.07 Ry    5.75 a.u.  13.85 13.85 17.80*2*pi/ulx,y,z
   ENINI  =  450.0     initial cutoff
   ENAUG  =  544.6 eV  augmentation charge cutoff
   NELM   =     60;   NELMIN=  5; NELMDL= -5     # of ELM steps 
   EDIFF  = 0.1E-05   stopping-criterion for ELM
   LREAL  =      F    real-space projection
   NLSPLINE    = F    spline interpolate recip. space projectors
   LCOMPAT=      F    compatible to vasp.4.4
   GGA_COMPAT  = T    GGA compatible to vasp.4.4-vasp.4.6
   LMAXPAW     = -100 max onsite density
   LMAXMIX     =    2 max onsite mixed and CHGCAR
   VOSKOWN=      0    Vosko Wilk Nusair interpolation
   ROPT   =    0.00000   0.00000   0.00000   0.00000
 Ionic relaxation
   EDIFFG = 0.1E-04   stopping-criterion for IOM
   NSW    =      0    number of steps for IOM
   NBLOCK =      1;   KBLOCK =      1    inner block; outer block 
   IBRION =     -1    ionic relax: 0-MD 1-quasi-New 2-CG
   NFREE  =      0    steps in history (QN), initial steepest desc. (CG)
   ISIF   =      6    stress and relaxation
   IWAVPR =     10    prediction:  0-non 1-charg 2-wave 3-comb
   ISYM   =      2    0-nonsym 1-usesym 2-fastsym
   LCORR  =      T    Harris-Foulkes like correction to forces

   POTIM  = 0.5000    time-step for ionic-motion
   TEIN   =    0.0    initial temperature
   TEBEG  =    0.0;   TEEND  =   0.0 temperature during run
   SMASS  =  -3.00    Nose mass-parameter (am)
   estimated Nose-frequenzy (Omega)   =  0.10E-29 period in steps = 0.13E+47 mass=  -0.147E-26a.u.
   SCALEE = 1.0000    scale energy and forces
   NPACO  =    256;   APACO  = 16.0  distance and # of slots for P.C.
   PSTRESS=    0.0 pullay stress

  Mass of Ions in am
   POMASS =  58.69 72.61 54.94 55.85
  Ionic Valenz
   ZVAL   =  10.00  4.00  7.00  8.00
  Atomic Wigner-Seitz radii
   RWIGS  =  -1.00 -1.00 -1.00 -1.00
  virtual crystal weights 
   VCA    =   1.00  1.00  1.00  1.00
   NELECT =     337.0000    total number of electrons
   NUPDOWN=      -1.0000    fix difference up-down

 DOS related values:
   EMIN   =  10.00;   EMAX   =-10.00  energy-range for DOS
   EFERMI =   0.00
   ISMEAR =     1;   SIGMA  =   0.20  broadening in eV -4-tet -1-fermi 0-gaus

 Electronic relaxation 2 (details)
   IALGO  =     38    algorithm
   LDIAG  =      T    sub-space diagonalisation (order eigenvalues)
   LSUBROT=      F    optimize rotation matrix (better conditioning)
   TURBO    =      0    0=normal 1=particle mesh
   IRESTART =      0    0=no restart 2=restart with 2 vectors
   NREBOOT  =      0    no. of reboots
   NMIN     =      0    reboot dimension
   EREF     =   0.00    reference energy to select bands
   IMIX   =      4    mixing-type and parameters
     AMIX     =   0.40;   BMIX     =  1.00
     AMIX_MAG =   1.60;   BMIX_MAG =  1.00
     AMIN     =   0.10
     WC   =   100.;   INIMIX=   1;  MIXPRE=   1;  MAXMIX= -45

 Intra band minimization:
   WEIMIN = 0.0000     energy-eigenvalue tresh-hold
   EBREAK =  0.69E-09  absolut break condition
   DEPER  =   0.30     relativ break condition  

   TIME   =   0.40     timestep for ELM

  volume/ion in A,a.u.               =      11.91        80.40
  Fermi-wavevector in a.u.,A,eV,Ry     =   1.372529  2.593703 25.631125  1.883835
  Thomas-Fermi vector in A             =   2.498127
 
 Write flags
   LWAVE        =      F    write WAVECAR
   LDOWNSAMPLE  =      F    k-point downsampling of WAVECAR
   LCHARG       =      T    write CHGCAR
   LVTOT        =      F    write LOCPOT, total local potential
   LVHAR        =      F    write LOCPOT, Hartree potential only
   LELF         =      F    write electronic localiz. function (ELF)
   LORBIT       =     11    0 simple, 1 ext, 2 COOP (PROOUT), +10 PAW based schemes


 Dipole corrections
   LMONO  =      F    monopole corrections only (constant potential shift)
   LDIPOL =      F    correct potential (dipole corrections)
   IDIPOL =      0    1-x, 2-y, 3-z, 4-all directions 
   EPSILON=  1.0000000 bulk dielectric constant

 Exchange correlation treatment:
   GGA     =    --    GGA type
   LEXCH   =     8    internal setting for exchange type
   VOSKOWN=      0    Vosko Wilk Nusair interpolation
   LHFCALC =     F    Hartree Fock is set to
   LHFONE  =     F    Hartree Fock one center treatment
   AEXX    =    0.0000 exact exchange contribution

 Linear response parameters
   LEPSILON=     F    determine dielectric tensor
   LRPA    =     F    only Hartree local field effects (RPA)
   LNABLA  =     F    use nabla operator in PAW spheres
   LVEL    =     F    velocity operator in full k-point grid
   LINTERFAST=   F  fast interpolation
   KINTER  =     0    interpolate to denser k-point grid
   CSHIFT  =0.1000    complex shift for real part using Kramers Kronig
   OMEGAMAX=  -1.0    maximum frequency
   DEG_THRESHOLD= 0.2000000E-02 threshold for treating states as degnerate
   RTIME   =   -0.100 relaxation time in fs
  (WPLASMAI=    0.000 imaginary part of plasma frequency in eV, 0.658/RTIME)
   DFIELD  = 0.0000000 0.0000000 0.0000000 field for delta impulse in time
 
 Orbital magnetization related:
   ORBITALMAG=     F  switch on orbital magnetization
   LCHIMAG   =     F  perturbation theory with respect to B field
   DQ        =  0.001000  dq finite difference perturbation B field
   LLRAUG    =     F  two centre corrections for induced B field



--------------------------------------------------------------------------------------------------------


 Static calculation
 charge density and potential will be updated during run
 spin polarized calculation
 Variant of blocked Davidson
 Davidson routine will perform the subspace rotation
 perform sub-space diagonalisation
    after iterative eigenvector-optimisation
 modified Broyden-mixing scheme, WC =      100.0
 initial mixing is a Kerker type mixing with AMIX =  0.4000 and BMIX =      1.0000
 Hartree-type preconditioning will be used
 using additional bands          191
 reciprocal scheme for non local part
 use partial core corrections
 calculate Harris-corrections to forces 
   (improved forces if not selfconsistent)
 use gradient corrections 
 use of overlap-Matrix (Vanderbilt PP)
 Methfessel and Paxton  Order N= 1 SIGMA  =   0.20


--------------------------------------------------------------------------------------------------------


  energy-cutoff  :      450.00
  volume of cell :      571.86
      direct lattice vectors                 reciprocal lattice vectors
     8.009657414  0.000000000  0.000000000     0.124849285  0.072081768  0.000000000
    -4.004828707  6.936566796  0.000000000     0.000000000  0.144163536  0.000000000
     0.000000000  0.000000000 10.292757671     0.000000000  0.000000000  0.097155693

  length of vectors
     8.009657414  8.009657414 10.292757671     0.144163536  0.144163536  0.097155693


 
 k-points in units of 2pi/SCALE and weight: Auto                                    
   0.00000000  0.00000000  0.00000000       0.002
   0.01359470  0.00784890  0.00000000       0.011
   0.02718940  0.01569781  0.00000000       0.011
   0.04078410  0.02354671  0.00000000       0.011
   0.05437880  0.03139561  0.00000000       0.011
   0.01359470  0.02354671  0.00000000       0.011
   0.02718940  0.03139561  0.00000000       0.021
   0.04078410  0.03924452  0.00000000       0.021
   0.05437880  0.04709342  0.00000000       0.011
   0.02718940  0.04709342  0.00000000       0.011
   0.04078410  0.05494233  0.00000000       0.021
   0.04078410  0.07064013  0.00000000       0.004
   0.00000000  0.00000000  0.01360180       0.004
   0.01359470  0.00784890  0.01360180       0.011
   0.01359470 -0.00784890  0.01360180       0.011
   0.02718940  0.01569781  0.01360180       0.011
   0.02718940 -0.01569781  0.01360180       0.011
   0.04078410  0.02354671  0.01360180       0.011
   0.04078410 -0.02354671  0.01360180       0.011
   0.05437880  0.03139561  0.01360180       0.011
   0.05437880 -0.03139561  0.01360180       0.011
   0.01359470  0.02354671  0.01360180       0.021
   0.02718940  0.03139561  0.01360180       0.021
   0.04078410 -0.00784890  0.01360180       0.021
   0.04078410  0.03924452  0.01360180       0.021
   0.05437880 -0.01569781  0.01360180       0.021
   0.05437880  0.04709342  0.01360180       0.021
   0.02718940  0.04709342  0.01360180       0.021
   0.04078410  0.05494233  0.01360180       0.021
  -0.05437880 -0.07848904  0.01360180       0.021
   0.04078410  0.07064013  0.01360180       0.007
   0.00000000  0.00000000  0.02720359       0.004
   0.01359470  0.00784890  0.02720359       0.011
   0.01359470 -0.00784890  0.02720359       0.011
   0.02718940  0.01569781  0.02720359       0.011
   0.02718940 -0.01569781  0.02720359       0.011
   0.04078410  0.02354671  0.02720359       0.011
   0.04078410 -0.02354671  0.02720359       0.011
   0.05437880  0.03139561  0.02720359       0.011
   0.05437880 -0.03139561  0.02720359       0.011
   0.01359470  0.02354671  0.02720359       0.021
   0.02718940  0.03139561  0.02720359       0.021
   0.04078410 -0.00784890  0.02720359       0.021
   0.04078410  0.03924452  0.02720359       0.021
   0.05437880 -0.01569781  0.02720359       0.021
   0.05437880  0.04709342  0.02720359       0.021
   0.02718940  0.04709342  0.02720359       0.021
   0.04078410  0.05494233  0.02720359       0.021
  -0.05437880 -0.07848904  0.02720359       0.021
   0.04078410  0.07064013  0.02720359       0.007
   0.00000000  0.00000000  0.04080539       0.004
   0.01359470  0.00784890  0.04080539       0.011
   0.01359470 -0.00784890  0.04080539       0.011
   0.02718940  0.01569781  0.04080539       0.011
   0.02718940 -0.01569781  0.04080539       0.011
   0.04078410  0.02354671  0.04080539       0.011
   0.04078410 -0.02354671  0.04080539       0.011
   0.05437880  0.03139561  0.04080539       0.011
   0.05437880 -0.03139561  0.04080539       0.011
   0.01359470  0.02354671  0.04080539       0.021
   0.02718940  0.03139561  0.04080539       0.021
   0.04078410 -0.00784890  0.04080539       0.021
   0.04078410  0.03924452  0.04080539       0.021
   0.05437880 -0.01569781  0.04080539       0.021
   0.05437880  0.04709342  0.04080539       0.021
   0.02718940  0.04709342  0.04080539       0.021
   0.04078410  0.05494233  0.04080539       0.021
  -0.05437880 -0.07848904  0.04080539       0.021
   0.04078410  0.07064013  0.04080539       0.007
 
 k-points in reciprocal lattice and weights: Auto                                    
   0.00000000  0.00000000  0.00000000       0.002
   0.11111111  0.00000000  0.00000000       0.011
   0.22222222  0.00000000  0.00000000       0.011
   0.33333333  0.00000000  0.00000000       0.011
   0.44444444  0.00000000  0.00000000       0.011
   0.11111111  0.11111111  0.00000000       0.011
   0.22222222  0.11111111  0.00000000       0.021
   0.33333333  0.11111111  0.00000000       0.021
   0.44444444  0.11111111  0.00000000       0.011
   0.22222222  0.22222222  0.00000000       0.011
   0.33333333  0.22222222  0.00000000       0.021
   0.33333333  0.33333333  0.00000000       0.004
   0.00000000  0.00000000  0.14285714       0.004
   0.11111111  0.00000000  0.14285714       0.011
   0.11111111 -0.11111111  0.14285714       0.011
   0.22222222  0.00000000  0.14285714       0.011
   0.22222222 -0.22222222  0.14285714       0.011
   0.33333333  0.00000000  0.14285714       0.011
   0.33333333 -0.33333333  0.14285714       0.011
   0.44444444  0.00000000  0.14285714       0.011
   0.44444444 -0.44444444  0.14285714       0.011
   0.11111111  0.11111111  0.14285714       0.021
   0.22222222  0.11111111  0.14285714       0.021
   0.33333333 -0.22222222  0.14285714       0.021
   0.33333333  0.11111111  0.14285714       0.021
   0.44444444 -0.33333333  0.14285714       0.021
   0.44444444  0.11111111  0.14285714       0.021
   0.22222222  0.22222222  0.14285714       0.021
   0.33333333  0.22222222  0.14285714       0.021
  -0.44444444 -0.33333333  0.14285714       0.021
   0.33333333  0.33333333  0.14285714       0.007
   0.00000000  0.00000000  0.28571429       0.004
   0.11111111  0.00000000  0.28571429       0.011
   0.11111111 -0.11111111  0.28571429       0.011
   0.22222222  0.00000000  0.28571429       0.011
   0.22222222 -0.22222222  0.28571429       0.011
   0.33333333  0.00000000  0.28571429       0.011
   0.33333333 -0.33333333  0.28571429       0.011
   0.44444444  0.00000000  0.28571429       0.011
   0.44444444 -0.44444444  0.28571429       0.011
   0.11111111  0.11111111  0.28571429       0.021
   0.22222222  0.11111111  0.28571429       0.021
   0.33333333 -0.22222222  0.28571429       0.021
   0.33333333  0.11111111  0.28571429       0.021
   0.44444444 -0.33333333  0.28571429       0.021
   0.44444444  0.11111111  0.28571429       0.021
   0.22222222  0.22222222  0.28571429       0.021
   0.33333333  0.22222222  0.28571429       0.021
  -0.44444444 -0.33333333  0.28571429       0.021
   0.33333333  0.33333333  0.28571429       0.007
   0.00000000  0.00000000  0.42857143       0.004
   0.11111111  0.00000000  0.42857143       0.011
   0.11111111 -0.11111111  0.42857143       0.011
   0.22222222  0.00000000  0.42857143       0.011
   0.22222222 -0.22222222  0.42857143       0.011
   0.33333333  0.00000000  0.42857143       0.011
   0.33333333 -0.33333333  0.42857143       0.011
   0.44444444  0.00000000  0.42857143       0.011
   0.44444444 -0.44444444  0.42857143       0.011
   0.11111111  0.11111111  0.42857143       0.021
   0.22222222  0.11111111  0.42857143       0.021
   0.33333333 -0.22222222  0.42857143       0.021
   0.33333333  0.11111111  0.42857143       0.021
   0.44444444 -0.33333333  0.42857143       0.021
   0.44444444  0.11111111  0.42857143       0.021
   0.22222222  0.22222222  0.42857143       0.021
   0.33333333  0.22222222  0.42857143       0.021
  -0.44444444 -0.33333333  0.42857143       0.021
   0.33333333  0.33333333  0.42857143       0.007
 
 position of ions in fractional coordinates (direct lattice) 
   0.66666667  0.83333333  0.37500000
   0.33333333  0.16666667  0.62500000
   0.16666667  0.83333333  0.37500000
   0.83333333  0.16666667  0.62500000
   0.16666667  0.33333333  0.37500000
   0.83333333  0.66666667  0.62500000
   0.83333333  0.66666667  0.12500000
   0.16666667  0.33333333  0.87500000
   0.33333333  0.16666667  0.12500000
   0.66666667  0.83333333  0.87500000
   0.83333333  0.16666667  0.12500000
   0.16666667  0.83333333  0.87500000
   0.33333333  0.66666667  0.12500000
   0.66666667  0.33333333  0.87500000
   0.66666667  0.33333333  0.37500000
   0.33333333  0.66666667  0.62500000
   0.66666667  0.83333333  0.12500000
   0.33333331  0.16666667  0.87500000
   0.16666667  0.83333333  0.12500000
   0.83333333  0.16666667  0.87500000
   0.16666667  0.33333333  0.12500000
   0.83333333  0.66666667  0.87500000
   0.83333333  0.66666667  0.37500000
   0.16666667  0.33333333  0.62500000
   0.33333333  0.16666667  0.37500000
   0.66666667  0.83333333  0.62500000
   0.83333333  0.16666667  0.37500000
   0.16666667  0.83333333  0.62500000
   0.33333333  0.66666667  0.37500000
   0.66666667  0.33333333  0.62500000
   0.66666667  0.33333333  0.12500000
   0.33333333  0.66666667  0.87500000
   0.50000000  0.50000000  0.00000000
   0.50000000  0.00000000  0.00000000
   0.00000000  0.50000000  0.00000000
   0.50000000  0.50000000  0.25000000
   0.50000000  0.50000000  0.75000000
   0.50000000  0.00000000  0.25000000
   0.50000000  0.00000000  0.75000000
   0.00000000  0.50000000  0.25000000
   0.00000000  0.50000000  0.75000000
   0.00000000  0.00000000  0.00000000
   0.00000000  0.00000000  0.25000000
   0.00000000  0.00000000  0.75000000
   0.50000000  0.50000000  0.50000000
   0.50000000  0.00000000  0.50000000
   0.00000000  0.50000000  0.50000000
   0.00000000  0.00000000  0.50000000
 
 position of ions in cartesian coordinates  (Angst):
   2.00241435  5.78047233  3.85978413
   2.00241435  1.15609446  6.43297354
  -2.00241436  5.78047233  3.85978413
   6.00724306  1.15609446  6.43297354
  -0.00000000  2.31218893  3.85978413
   4.00482871  4.62437786  6.43297354
   4.00482871  4.62437786  1.28659471
  -0.00000000  2.31218893  9.00616296
   2.00241435  1.15609446  1.28659471
   2.00241435  5.78047233  9.00616296
   6.00724306  1.15609446  1.28659471
  -2.00241436  5.78047233  9.00616296
   0.00000000  4.62437786  1.28659471
   4.00482870  2.31218893  9.00616296
   4.00482870  2.31218893  3.85978413
   0.00000000  4.62437786  6.43297354
   2.00241435  5.78047233  1.28659471
   2.00241419  1.15609446  9.00616296
  -2.00241436  5.78047233  1.28659471
   6.00724306  1.15609446  9.00616296
  -0.00000000  2.31218893  1.28659471
   4.00482871  4.62437786  9.00616296
   4.00482871  4.62437786  3.85978413
  -0.00000000  2.31218893  6.43297354
   2.00241435  1.15609446  3.85978413
   2.00241435  5.78047233  6.43297354
   6.00724306  1.15609446  3.85978413
  -2.00241436  5.78047233  6.43297354
   0.00000000  4.62437786  3.85978413
   4.00482870  2.31218893  6.43297354
   4.00482870  2.31218893  1.28659471
   0.00000000  4.62437786  9.00616296
   2.00241435  3.46828340  0.00000000
   4.00482871  0.00000000  0.00000000
  -2.00241435  3.46828340  0.00000000
   2.00241435  3.46828340  2.57318942
   2.00241435  3.46828340  7.71956825
   4.00482871  0.00000000  2.57318942
   4.00482871  0.00000000  7.71956825
  -2.00241435  3.46828340  2.57318942
  -2.00241435  3.46828340  7.71956825
   0.00000000  0.00000000  0.00000000
   0.00000000  0.00000000  2.57318942
   0.00000000  0.00000000  7.71956825
   2.00241435  3.46828340  5.14637884
   4.00482871  0.00000000  5.14637884
  -2.00241435  3.46828340  5.14637884
   0.00000000  0.00000000  5.14637884
 


--------------------------------------------------------------------------------------------------------


 k-point   1 :   0.0000 0.0000 0.0000  plane waves:   12329
 k-point   2 :   0.1111 0.0000 0.0000  plane waves:   12384
 k-point   3 :   0.2222 0.0000 0.0000  plane waves:   12390
 k-point   4 :   0.3333 0.0000 0.0000  plane waves:   12418
 k-point   5 :   0.4444 0.0000 0.0000  plane waves:   12406
 k-point   6 :   0.1111 0.1111 0.0000  plane waves:   12402
 k-point   7 :   0.2222 0.1111 0.0000  plane waves:   12394
 k-point   8 :   0.3333 0.1111 0.0000  plane waves:   12396
 k-point   9 :   0.4444 0.1111 0.0000  plane waves:   12382
 k-point  10 :   0.2222 0.2222 0.0000  plane waves:   12416
 k-point  11 :   0.3333 0.2222 0.0000  plane waves:   12394
 k-point  12 :   0.3333 0.3333 0.0000  plane waves:   12390
 k-point  13 :   0.0000 0.0000 0.1429  plane waves:   12365
 k-point  14 :   0.1111 0.0000 0.1429  plane waves:   12378
 k-point  15 :   0.1111-0.1111 0.1429  plane waves:   12378
 k-point  16 :   0.2222 0.0000 0.1429  plane waves:   12400
 k-point  17 :   0.2222-0.2222 0.1429  plane waves:   12400
 k-point  18 :   0.3333 0.0000 0.1429  plane waves:   12402
 k-point  19 :   0.3333-0.3333 0.1429  plane waves:   12402
 k-point  20 :   0.4444 0.0000 0.1429  plane waves:   12403
 k-point  21 :   0.4444-0.4444 0.1429  plane waves:   12403
 k-point  22 :   0.1111 0.1111 0.1429  plane waves:   12387
 k-point  23 :   0.2222 0.1111 0.1429  plane waves:   12407
 k-point  24 :   0.3333-0.2222 0.1429  plane waves:   12407
 k-point  25 :   0.3333 0.1111 0.1429  plane waves:   12400
 k-point  26 :   0.4444-0.3333 0.1429  plane waves:   12400
 k-point  27 :   0.4444 0.1111 0.1429  plane waves:   12391
 k-point  28 :   0.2222 0.2222 0.1429  plane waves:   12394
 k-point  29 :   0.3333 0.2222 0.1429  plane waves:   12381
 k-point  30 :  -0.4444-0.3333 0.1429  plane waves:   12381
 k-point  31 :   0.3333 0.3333 0.1429  plane waves:   12366
 k-point  32 :   0.0000 0.0000 0.2857  plane waves:   12396
 k-point  33 :   0.1111 0.0000 0.2857  plane waves:   12383
 k-point  34 :   0.1111-0.1111 0.2857  plane waves:   12383
 k-point  35 :   0.2222 0.0000 0.2857  plane waves:   12386
 k-point  36 :   0.2222-0.2222 0.2857  plane waves:   12386
 k-point  37 :   0.3333 0.0000 0.2857  plane waves:   12394
 k-point  38 :   0.3333-0.3333 0.2857  plane waves:   12394
 k-point  39 :   0.4444 0.0000 0.2857  plane waves:   12416
 k-point  40 :   0.4444-0.4444 0.2857  plane waves:   12416
 k-point  41 :   0.1111 0.1111 0.2857  plane waves:   12376
 k-point  42 :   0.2222 0.1111 0.2857  plane waves:   12388
 k-point  43 :   0.3333-0.2222 0.2857  plane waves:   12388
 k-point  44 :   0.3333 0.1111 0.2857  plane waves:   12399
 k-point  45 :   0.4444-0.3333 0.2857  plane waves:   12399
 k-point  46 :   0.4444 0.1111 0.2857  plane waves:   12401
 k-point  47 :   0.2222 0.2222 0.2857  plane waves:   12405
 k-point  48 :   0.3333 0.2222 0.2857  plane waves:   12408
 k-point  49 :  -0.4444-0.3333 0.2857  plane waves:   12408
 k-point  50 :   0.3333 0.3333 0.2857  plane waves:   12390
 k-point  51 :   0.0000 0.0000 0.4286  plane waves:   12378
 k-point  52 :   0.1111 0.0000 0.4286  plane waves:   12363
 k-point  53 :   0.1111-0.1111 0.4286  plane waves:   12363
 k-point  54 :   0.2222 0.0000 0.4286  plane waves:   12380
 k-point  55 :   0.2222-0.2222 0.4286  plane waves:   12380
 k-point  56 :   0.3333 0.0000 0.4286  plane waves:   12402
 k-point  57 :   0.3333-0.3333 0.4286  plane waves:   12402
 k-point  58 :   0.4444 0.0000 0.4286  plane waves:   12423
 k-point  59 :   0.4444-0.4444 0.4286  plane waves:   12423
 k-point  60 :   0.1111 0.1111 0.4286  plane waves:   12378
 k-point  61 :   0.2222 0.1111 0.4286  plane waves:   12394
 k-point  62 :   0.3333-0.2222 0.4286  plane waves:   12394
 k-point  63 :   0.3333 0.1111 0.4286  plane waves:   12409
 k-point  64 :   0.4444-0.3333 0.4286  plane waves:   12409
 k-point  65 :   0.4444 0.1111 0.4286  plane waves:   12415
 k-point  66 :   0.2222 0.2222 0.4286  plane waves:   12399
 k-point  67 :   0.3333 0.2222 0.4286  plane waves:   12417
 k-point  68 :  -0.4444-0.3333 0.4286  plane waves:   12417
 k-point  69 :   0.3333 0.3333 0.4286  plane waves:   12426

 maximum and minimum number of plane-waves per node :      2093     2030

 maximum number of plane-waves:     12426
 maximum index in each direction: 
   IXMAX=   14   IYMAX=   14   IZMAX=   17
   IXMIN=  -14   IYMIN=  -14   IZMIN=  -18


 parallel 3D FFT for wavefunctions:
    minimum data exchange during FFTs selected (reduces bandwidth)
 parallel 3D FFT for charge:
    minimum data exchange during FFTs selected (reduces bandwidth)


 total amount of memory used by VASP MPI-rank0   570813. kBytes
=======================================================================

   base      :      30000. kBytes
   nonl-proj :      84427. kBytes
   fftplans  :       3906. kBytes
   grid      :      11074. kBytes
   one-center:        248. kBytes
   wavefun   :     441158. kBytes
 
     INWAV:  cpu time    0.0010: real time    0.0045
 Broyden mixing: mesh for mixing (old mesh)
   NGX = 27   NGY = 27   NGZ = 35
  (NGX  =112   NGY  =112   NGZ  =144)
  gives a total of  25515 points

 initial charge density was supplied:
 charge density of overlapping atoms calculated
 number of electron     337.0000000 magnetization     160.0000000
 keeping initial charge density in first step


--------------------------------------------------------------------------------------------------------


 Maximum index for augmentation-charges          982 (set IRDMAX)


--------------------------------------------------------------------------------------------------------


 First call to EWALD:  gamma=   0.214
 Maximum number of real-space cells 3x 3x 2
 Maximum number of reciprocal cells 3x 3x 3

    FEWALD:  cpu time    0.0030: real time    0.0160


--------------------------------------- Iteration      1(   1)  ---------------------------------------


    POTLOK:  cpu time    0.1640: real time    0.6540
    SETDIJ:  cpu time    0.0340: real time    0.1519
     EDDAV:  cpu time  312.2425: real time  315.6093
       DOS:  cpu time    0.0450: real time    0.0828
    --------------------------------------------
      LOOP:  cpu time  312.4855: real time  316.4980

 eigenvalue-minimisations  : 99360
 total energy-change (2. order) : 0.2886723E+04  (-0.1074553E+05)
 number of electron     337.0000000 magnetization     160.0000000
 augmentation part      337.0000000 magnetization     160.0000000

 Free energy of the ion-electron system (eV)
  ---------------------------------------------------
  alpha Z        PSCENC =      1679.47428337
  Ewald energy   TEWEN  =    -22962.27437175
  -Hartree energ DENC   =     -6548.60366688
  -exchange      EXHF   =         0.00000000
  -V(xc)+E(xc)   XCENC  =       325.22403870
  PAW double counting   =     23377.83946347   -23998.34197029
  entropy T*S    EENTRO =         0.00535062
  eigenvalues    EBANDS =      5245.17363013
  atomic energy  EATOM  =     25768.22672671
  Solvation  Ediel_sol  =         0.00000000
  ---------------------------------------------------
  free energy    TOTEN  =      2886.72348408 eV

  energy without entropy =     2886.71813347  energy(sigma->0) =     2886.72170054


--------------------------------------------------------------------------------------------------------




--------------------------------------- Iteration      1(   2)  ---------------------------------------


     EDDAV:  cpu time  312.1385: real time  313.6755
       DOS:  cpu time    0.0500: real time    0.0504
    --------------------------------------------
      LOOP:  cpu time  312.1885: real time  313.7259

 eigenvalue-minimisations  : 99360
 total energy-change (2. order) :-0.2687662E+04  (-0.2392155E+04)
 number of electron     337.0000000 magnetization     160.0000000
 augmentation part      337.0000000 magnetization     160.0000000

 Free energy of the ion-electron system (eV)
  ---------------------------------------------------
  alpha Z        PSCENC =      1679.47428337
  Ewald energy   TEWEN  =    -22962.27437175
  -Hartree energ DENC   =     -6548.60366688
  -exchange      EXHF   =         0.00000000
  -V(xc)+E(xc)   XCENC  =       325.22403870
  PAW double counting   =     23377.83946347   -23998.34197029
  entropy T*S    EENTRO =         0.00160786
  eigenvalues    EBANDS =      2557.51578587
  atomic energy  EATOM  =     25768.22672671
  Solvation  Ediel_sol  =         0.00000000
  ---------------------------------------------------
  free energy    TOTEN  =       199.06189706 eV

  energy without entropy =      199.06028920  energy(sigma->0) =      199.06136111


--------------------------------------------------------------------------------------------------------




--------------------------------------- Iteration      1(   3)  ---------------------------------------


     EDDAV:  cpu time  312.7415: real time  313.8643
       DOS:  cpu time    0.0570: real time    0.0848
    --------------------------------------------
      LOOP:  cpu time  312.7984: real time  313.9492

 eigenvalue-minimisations  : 99504
 total energy-change (2. order) :-0.4559404E+03  (-0.3758985E+03)
 number of electron     337.0000000 magnetization     160.0000000
 augmentation part      337.0000000 magnetization     160.0000000

 Free energy of the ion-electron system (eV)
  ---------------------------------------------------
  alpha Z        PSCENC =      1679.47428337
  Ewald energy   TEWEN  =    -22962.27437175
  -Hartree energ DENC   =     -6548.60366688
  -exchange      EXHF   =         0.00000000
  -V(xc)+E(xc)   XCENC  =       325.22403870
  PAW double counting   =     23377.83946347   -23998.34197029
  entropy T*S    EENTRO =         0.02522109
  eigenvalues    EBANDS =      2101.55176165
  atomic energy  EATOM  =     25768.22672671
  Solvation  Ediel_sol  =         0.00000000
  ---------------------------------------------------
  free energy    TOTEN  =      -256.87851393 eV

  energy without entropy =     -256.90373502  energy(sigma->0) =     -256.88692096


--------------------------------------------------------------------------------------------------------




--------------------------------------- Iteration      1(   4)  ---------------------------------------


     EDDAV:  cpu time  365.3445: real time  366.7179
       DOS:  cpu time    0.0600: real time    0.0596
    --------------------------------------------
      LOOP:  cpu time  365.4045: real time  366.7775

 eigenvalue-minimisations  :121520
 total energy-change (2. order) :-0.3339617E+02  (-0.3191984E+02)
 number of electron     337.0000000 magnetization     160.0000000
 augmentation part      337.0000000 magnetization     160.0000000

 Free energy of the ion-electron system (eV)
  ---------------------------------------------------
  alpha Z        PSCENC =      1679.47428337
  Ewald energy   TEWEN  =    -22962.27437175
  -Hartree energ DENC   =     -6548.60366688
  -exchange      EXHF   =         0.00000000
  -V(xc)+E(xc)   XCENC  =       325.22403870
  PAW double counting   =     23377.83946347   -23998.34197029
  entropy T*S    EENTRO =         0.03921467
  eigenvalues    EBANDS =      2068.14159714
  atomic energy  EATOM  =     25768.22672671
  Solvation  Ediel_sol  =         0.00000000
  ---------------------------------------------------
  free energy    TOTEN  =      -290.27468486 eV

  energy without entropy =     -290.31389953  energy(sigma->0) =     -290.28775642


--------------------------------------------------------------------------------------------------------




--------------------------------------- Iteration      1(   5)  ---------------------------------------


     EDDAV:  cpu time  366.9332: real time  368.2846
       DOS:  cpu time    0.0590: real time    0.0588
    CHARGE:  cpu time    5.9051: real time    6.0115
    MIXING:  cpu time    0.0070: real time    0.0682
    --------------------------------------------
      LOOP:  cpu time  372.9043: real time  374.4232

 eigenvalue-minimisations  :122232
 total energy-change (2. order) :-0.8582596E+00  (-0.8562870E+00)
 number of electron     337.0000036 magnetization     123.5341351
 augmentation part      120.9354734 magnetization     101.4126266

 Broyden mixing:
  rms(total) = 0.10639E+02    rms(broyden)= 0.10638E+02
  rms(prec ) = 0.11501E+02
  weight for this iteration     100.00

 Free energy of the ion-electron system (eV)
  ---------------------------------------------------
  alpha Z        PSCENC =      1679.47428337
  Ewald energy   TEWEN  =    -22962.27437175
  -Hartree energ DENC   =     -6548.60366688
  -exchange      EXHF   =         0.00000000
  -V(xc)+E(xc)   XCENC  =       325.22403870
  PAW double counting   =     23377.83946347   -23998.34197029
  entropy T*S    EENTRO =         0.03970048
  eigenvalues    EBANDS =      2067.28285169
  atomic energy  EATOM  =     25768.22672671
  Solvation  Ediel_sol  =         0.00000000
  ---------------------------------------------------
  free energy    TOTEN  =      -291.13294450 eV

  energy without entropy =     -291.17264498  energy(sigma->0) =     -291.14617799


--------------------------------------------------------------------------------------------------------




--------------------------------------- Iteration      1(   6)  ---------------------------------------


    POTLOK:  cpu time    0.1490: real time    0.1561
    SETDIJ:  cpu time    0.0280: real time    0.0286
     EDDAV:  cpu time  374.8100: real time  376.3704
       DOS:  cpu time    0.0600: real time    0.0605
    CHARGE:  cpu time    5.5622: real time    5.5718
    MIXING:  cpu time    0.0070: real time    0.1624
    --------------------------------------------
[...]
   43        0.019   0.015   2.678   2.713
   44        0.019   0.015   2.678   2.713
   45        0.017   0.015   2.586   2.618
   46        0.017   0.015   2.586   2.618
   47        0.017   0.015   2.586   2.618
   48        0.014   0.003   2.100   2.117
--------------------------------------------------
tot         -0.315  -1.739  43.543  41.489
 
    CHARGE:  cpu time    5.4832: real time    5.5031
    FORLOC:  cpu time    0.0230: real time    0.0301
    FORNL :  cpu time  104.7631: real time  105.1002
    STRESS:  cpu time  178.8758: real time  179.4933
    FORCOR:  cpu time    0.1720: real time    0.1986
    FORHAR:  cpu time    0.0340: real time    0.0428
    MIXING:  cpu time    0.0070: real time    0.0075
    OFIELD:  cpu time    0.0010: real time    0.0041

  FORCE on cell =-STRESS in cart. coord.  units (eV):
  Direction    XX          YY          ZZ          XY          YZ          ZX
  --------------------------------------------------------------------------------------
  Alpha Z  1679.47428  1679.47428  1679.47428
  Ewald   -7431.04939 -7431.04938 -8100.27141    -0.00001     0.00000     0.00000
  Hartree  2063.60079  2063.60078  1941.87061    -0.00000     0.00000    -0.00000
  E(xc)   -1663.49288 -1663.49292 -1666.44240    -0.00003     0.00000    -0.00000
  Local    -586.31256  -586.31372    74.24373    -0.00100    -0.00000     0.00000
  n-local  -196.64843  -198.94795  -237.61756     1.01249    -0.43757    -0.59949
  augment  3291.61915  3291.61999  3366.20788     0.00073     0.00000    -0.00000
  Kinetic  2880.12194  2880.48160  2974.52195    -0.02493     0.49306     1.26646
  Fock        0.00000     0.00000     0.00000     0.00000     0.00000     0.00000
  -------------------------------------------------------------------------------------
  Total      36.34279    36.34279    31.98709    -0.00000     0.00000     0.00000
  in kB     101.82129   101.82129    89.61795    -0.00000     0.00000     0.00000
  external pressure =       97.75 kB  Pullay stress =        0.00 kB


 VOLUME and BASIS-vectors are now :
 -----------------------------------------------------------------------------
  energy-cutoff  :      450.00
  volume of cell :      571.86
      direct lattice vectors                 reciprocal lattice vectors
     8.009657414  0.000000000  0.000000000     0.124849285  0.072081768  0.000000000
    -4.004828707  6.936566796  0.000000000     0.000000000  0.144163536  0.000000000
     0.000000000  0.000000000 10.292757671     0.000000000  0.000000000  0.097155693

  length of vectors
     8.009657414  8.009657414 10.292757671     0.144163536  0.144163536  0.097155693


 FORCES acting on ions
    electron-ion (+dipol)            ewald-force                    non-local-force                 convergence-correction
 -----------------------------------------------------------------------------------------------
   0.126E+02 0.725E+01 0.103E+02   -.126E+02 -.728E+01 -.103E+02   0.433E-01 0.250E-01 -.172E-01   0.105E-01 0.606E-02 0.440E-02
   -.126E+02 -.725E+01 -.103E+02   0.126E+02 0.728E+01 0.103E+02   -.433E-01 -.250E-01 0.172E-01   -.105E-01 -.606E-02 -.440E-02
   -.126E+02 0.725E+01 0.103E+02   0.126E+02 -.728E+01 -.103E+02   -.433E-01 0.250E-01 -.172E-01   -.105E-01 0.606E-02 0.440E-02
   0.126E+02 -.725E+01 -.103E+02   -.126E+02 0.728E+01 0.103E+02   0.433E-01 -.250E-01 0.172E-01   0.105E-01 -.606E-02 -.440E-02
   0.455E-06 -.145E+02 0.103E+02   0.110E-05 0.146E+02 -.103E+02   0.867E-18 -.500E-01 -.172E-01   -.219E-08 -.121E-01 0.440E-02
   -.801E-06 0.145E+02 -.103E+02   -.660E-06 -.146E+02 0.103E+02   -.867E-18 0.500E-01 0.172E-01   0.252E-08 0.121E-01 -.440E-02
   -.677E-06 0.185E+01 0.436E+01   -.660E-06 -.187E+01 -.440E+01   -.867E-18 0.253E-01 0.423E-01   -.120E-08 0.104E-02 0.446E-02
   -.126E-05 -.185E+01 -.436E+01   -.929E-05 0.187E+01 0.440E+01   0.434E-18 -.253E-01 -.423E-01   0.248E-08 -.104E-02 -.446E-02
   -.160E+01 -.924E+00 0.436E+01   0.162E+01 0.934E+00 -.440E+01   -.219E-01 -.126E-01 0.423E-01   -.901E-03 -.520E-03 0.446E-02
   0.160E+01 0.924E+00 -.436E+01   -.162E+01 -.934E+00 0.440E+01   0.219E-01 0.126E-01 -.423E-01   0.901E-03 0.520E-03 -.446E-02
   0.160E+01 -.924E+00 0.436E+01   -.162E+01 0.934E+00 -.440E+01   0.219E-01 -.126E-01 0.423E-01   0.901E-03 -.520E-03 0.446E-02
   -.160E+01 0.924E+00 -.436E+01   0.162E+01 -.934E+00 0.440E+01   -.219E-01 0.126E-01 -.423E-01   -.901E-03 0.520E-03 -.446E-02
   -.672E-06 0.150E-06 0.296E+01   -.660E-06 0.217E-05 -.291E+01   -.108E-18 0.000E+00 -.439E-01   0.228E-08 -.259E-07 0.104E-02
   -.127E-05 -.204E-05 -.296E+01   -.928E-05 -.962E-05 0.291E+01   0.108E-18 0.000E+00 0.439E-01   -.100E-08 0.195E-07 -.104E-02
   0.298E-06 -.607E-06 0.361E+01   0.113E-05 -.126E-06 -.366E+01   -.130E-17 -.434E-18 0.841E-01   0.229E-08 0.689E-08 0.600E-03
   -.677E-06 0.138E-06 -.361E+01   -.660E-06 0.218E-05 0.366E+01   0.434E-18 0.434E-18 -.841E-01   -.199E-08 -.234E-07 -.600E-03
   0.638E+00 0.368E+00 0.173E+01   -.647E+00 -.374E+00 -.176E+01   0.107E-01 0.618E-02 0.320E-02   0.500E-03 0.288E-03 0.174E-02
   -.638E+00 -.368E+00 -.173E+01   0.647E+00 0.374E+00 0.176E+01   -.107E-01 -.618E-02 -.320E-02   -.500E-03 -.288E-03 -.174E-02
   -.638E+00 0.368E+00 0.173E+01   0.647E+00 -.374E+00 -.176E+01   -.107E-01 0.618E-02 0.320E-02   -.500E-03 0.288E-03 0.174E-02
   0.638E+00 -.368E+00 -.173E+01   -.647E+00 0.374E+00 0.176E+01   0.107E-01 -.618E-02 -.320E-02   0.500E-03 -.288E-03 -.174E-02
   0.842E-06 -.736E+00 0.173E+01   0.372E-06 0.747E+00 -.176E+01   0.867E-18 -.124E-01 0.320E-02   0.424E-08 -.577E-03 0.174E-02
   -.846E-06 0.736E+00 -.173E+01   -.640E-06 -.747E+00 0.176E+01   -.867E-18 0.124E-01 -.320E-02   -.404E-08 0.577E-03 -.174E-02
   -.815E-06 0.578E+01 0.409E+01   -.440E-06 -.582E+01 -.411E+01   0.347E-17 0.142E+00 0.935E-01   -.436E-08 0.464E-02 0.167E-02
   0.850E-06 -.578E+01 -.409E+01   0.363E-06 0.582E+01 0.411E+01   0.000E+00 -.142E+00 -.935E-01   0.447E-08 -.464E-02 -.167E-02
   -.500E+01 -.289E+01 0.409E+01   0.504E+01 0.291E+01 -.411E+01   -.123E+00 -.711E-01 0.935E-01   -.401E-02 -.232E-02 0.167E-02
   0.500E+01 0.289E+01 -.409E+01   -.504E+01 -.291E+01 0.411E+01   0.123E+00 0.711E-01 -.935E-01   0.401E-02 0.232E-02 -.167E-02
   0.500E+01 -.289E+01 0.409E+01   -.504E+01 0.291E+01 -.411E+01   0.123E+00 -.711E-01 0.935E-01   0.401E-02 -.232E-02 0.167E-02
   -.500E+01 0.289E+01 -.409E+01   0.504E+01 -.291E+01 0.411E+01   -.123E+00 0.711E-01 -.935E-01   -.401E-02 0.232E-02 -.167E-02
   -.811E-06 0.573E-06 0.145E+01   -.440E-06 0.654E-06 -.146E+01   0.867E-18 0.000E+00 0.609E-02   -.476E-08 -.274E-08 0.400E-03
   0.833E-06 -.513E-06 -.145E+01   0.377E-06 -.614E-06 0.146E+01   0.000E+00 0.000E+00 -.609E-02   0.487E-08 0.137E-08 -.400E-03
   0.840E-06 -.504E-06 0.119E+01   0.374E-06 -.616E-06 -.116E+01   0.173E-17 -.520E-17 0.383E-02   0.286E-08 0.253E-08 0.570E-03
   -.845E-06 0.740E-06 -.119E+01   -.640E-06 0.178E-05 0.116E+01   -.260E-17 0.520E-17 -.383E-02   -.266E-08 -.932E-08 -.570E-03
   0.584E-06 0.295E-06 0.237E-10   0.233E-05 -.737E-06 -.146E-12   0.000E+00 0.000E+00 0.000E+00   -.183E-07 0.282E-10 -.639E-12
   -.310E-06 0.811E-06 -.555E-06   -.362E-05 0.270E-05 -.368E-05   0.000E+00 0.000E+00 0.000E+00   0.524E-09 -.109E-07 0.554E-08
   -.278E-08 0.295E-06 -.169E-10   -.157E-05 -.737E-06 0.241E-13   -.496E-23 0.000E+00 0.000E+00   0.177E-07 0.292E-10 -.169E-11
   0.614E-02 -.354E-02 0.365E+01   -.857E-07 -.737E-06 -.365E+01   -.383E-02 0.221E-02 0.633E-02   0.225E-03 -.130E-03 0.134E-02
   -.614E-02 0.354E-02 -.365E+01   0.233E-05 -.737E-06 0.365E+01   0.383E-02 -.221E-02 -.633E-02   -.225E-03 0.130E-03 -.134E-02
   0.161E-06 0.709E-02 0.365E+01   -.497E-06 -.500E-06 -.365E+01   0.379E-18 -.442E-02 0.633E-02   -.241E-08 0.260E-03 0.134E-02
   -.311E-06 -.709E-02 -.365E+01   -.362E-05 0.270E-05 0.365E+01   -.651E-18 0.442E-02 -.633E-02   0.306E-08 -.260E-03 -.134E-02
   -.614E-02 -.354E-02 0.365E+01   -.695E-06 -.737E-06 -.365E+01   0.383E-02 0.221E-02 0.633E-02   -.225E-03 -.130E-03 0.134E-02
   0.614E-02 0.354E-02 -.365E+01   -.157E-05 -.737E-06 0.365E+01   -.383E-02 -.221E-02 -.633E-02   0.225E-03 0.130E-03 -.134E-02
   -.310E-06 -.221E-06 0.555E-06   -.362E-05 -.417E-05 0.368E-05   0.000E+00 0.000E+00 0.000E+00   0.527E-09 0.109E-07 -.554E-08
   0.161E-06 0.260E-06 0.145E+02   -.497E-06 -.974E-06 -.146E+02   -.169E-19 0.678E-20 0.239E+00   0.212E-08 0.518E-08 0.104E-01
   -.311E-06 -.222E-06 -.145E+02   -.362E-05 -.417E-05 0.146E+02   0.271E-19 -.339E-19 -.239E+00   -.147E-08 0.121E-07 -.104E-01
   0.221E-06 0.295E-06 -.355E-11   -.857E-07 -.737E-06 0.142E-13   -.207E-23 0.000E+00 0.000E+00   -.108E-07 0.279E-10 0.582E-12
   0.160E-06 0.330E-06 0.805E-07   -.497E-06 -.500E-06 0.536E-06   0.000E+00 0.000E+00 0.000E+00   0.124E-09 -.627E-08 -.455E-08
   0.130E-06 0.295E-06 -.290E-10   -.695E-06 -.737E-06 0.138E-33   0.827E-24 0.000E+00 0.000E+00   0.107E-07 0.300E-10 0.167E-11
   0.182E-06 0.296E-06 -.920E-07   -.568E-06 -.111E-05 -.612E-06   0.165E-23 0.000E+00 0.000E+00   0.153E-09 0.739E-08 0.536E-08
 -----------------------------------------------------------------------------------------------
   -.738E-05 0.802E-06 -.830E-07   0.234E-12 -.192E-13 0.142E-13   -.147E-16 -.421E-16 0.278E-16   0.408E-09 0.103E-08 0.583E-09
 
 
 POSITION                                       TOTAL-FORCE (eV/Angst)
 -----------------------------------------------------------------------------------
      2.00241      5.78047      3.85978         0.002691      0.001553      0.004685
      2.00241      1.15609      6.43297        -0.002691     -0.001553     -0.004685
     -2.00241      5.78047      3.85978        -0.002691      0.001553      0.004685
      6.00724      1.15609      6.43297         0.002691     -0.001553     -0.004685
     -0.00000      2.31219      3.85978        -0.000000     -0.003107      0.004685
      4.00483      4.62438      6.43297        -0.000000      0.003107     -0.004685
      4.00483      4.62438      1.28659        -0.000000      0.006428      0.004938
     -0.00000      2.31219      9.00616        -0.000000     -0.006428     -0.004938
      2.00241      1.15609      1.28659        -0.005567     -0.003214      0.004938
      2.00241      5.78047      9.00616         0.005567      0.003214     -0.004938
      6.00724      1.15609      1.28659         0.005567     -0.003214      0.004938
     -2.00241      5.78047      9.00616        -0.005567      0.003214     -0.004938
      0.00000      4.62438      1.28659        -0.000000      0.000000      0.004049
      4.00483      2.31219      9.00616        -0.000000      0.000000     -0.004049
      4.00483      2.31219      3.85978        -0.000000      0.000000      0.032437
      0.00000      4.62438      6.43297        -0.000000      0.000000     -0.032437
      2.00241      5.78047      1.28659         0.001728      0.000998     -0.022283
      2.00241      1.15609      9.00616        -0.001728     -0.000998      0.022283
     -2.00241      5.78047      1.28659        -0.001728      0.000998     -0.022283
      6.00724      1.15609      9.00616         0.001728     -0.000998      0.022283
     -0.00000      2.31219      1.28659        -0.000000     -0.001996     -0.022283
      4.00483      4.62438      9.00616        -0.000000      0.001996      0.022283
      4.00483      4.62438      3.85978         0.000000      0.099670      0.077742
     -0.00000      2.31219      6.43297        -0.000000     -0.099670     -0.077742
      2.00241      1.15609      3.85978        -0.086317     -0.049835      0.077742
      2.00241      5.78047      6.43297         0.086317      0.049835     -0.077742
      6.00724      1.15609      3.85978         0.086317     -0.049835      0.077742
     -2.00241      5.78047      6.43297        -0.086317      0.049835     -0.077742
      0.00000      4.62438      3.85978        -0.000000      0.000000     -0.002425
      4.00483      2.31219      6.43297        -0.000000      0.000000      0.002425
      4.00483      2.31219      1.28659        -0.000000      0.000000      0.034885
      0.00000      4.62438      9.00616        -0.000000      0.000000     -0.034885
      2.00241      3.46828      0.00000        -0.000000      0.000000     -0.000000
      4.00483      0.00000      0.00000        -0.000000      0.000000     -0.000000
     -2.00241      3.46828      0.00000        -0.000000      0.000000     -0.000000
      2.00241      3.46828      2.57319         0.002532     -0.001462      0.013721
      2.00241      3.46828      7.71957        -0.002532      0.001462     -0.013721
      4.00483      0.00000      2.57319        -0.000000      0.002923      0.013721
      4.00483      0.00000      7.71957        -0.000000     -0.002923     -0.013721
     -2.00241      3.46828      2.57319        -0.002532     -0.001462      0.013721
     -2.00241      3.46828      7.71957         0.002532      0.001462     -0.013721
      0.00000      0.00000      0.00000        -0.000000      0.000000     -0.000000
      0.00000      0.00000      2.57319        -0.000000      0.000000      0.148091
      0.00000      0.00000      7.71957        -0.000000      0.000000     -0.148091
      2.00241      3.46828      5.14638        -0.000000      0.000000     -0.000000
      4.00483      0.00000      5.14638        -0.000000      0.000000     -0.000000
     -2.00241      3.46828      5.14638        -0.000000      0.000000     -0.000000
      0.00000      0.00000      5.14638        -0.000000      0.000000     -0.000000
 -----------------------------------------------------------------------------------
    total drift:                               -0.000007      0.000001     -0.000000


--------------------------------------------------------------------------------------------------------



  FREE ENERGIE OF THE ION-ELECTRON SYSTEM (eV)
  ---------------------------------------------------
  free  energy   TOTEN  =      -312.13193214 eV

  energy  without entropy=     -312.14370310  energy(sigma->0) =     -312.13585579
 


--------------------------------------------------------------------------------------------------------


    POTLOK:  cpu time    0.1810: real time    0.2058


--------------------------------------------------------------------------------------------------------


     LOOP+:  cpu time13400.0919: real time13453.9368
    4ORBIT:  cpu time    0.0000: real time    0.0000
 


 total charge     
 
# of ion       s       p       d       tot
------------------------------------------
    1        0.494   0.581   8.484   9.558
    2        0.494   0.581   8.484   9.558
    3        0.494   0.581   8.484   9.558
    4        0.494   0.581   8.484   9.558
    5        0.494   0.581   8.484   9.558
    6        0.494   0.581   8.484   9.558
    7        0.495   0.585   8.483   9.563
    8        0.495   0.585   8.483   9.563
    9        0.495   0.585   8.483   9.563
   10        0.495   0.585   8.483   9.563
   11        0.495   0.585   8.483   9.563
   12        0.495   0.585   8.483   9.563
   13        0.495   0.586   8.482   9.563
   14        0.495   0.586   8.482   9.563
   15        0.495   0.584   8.484   9.563
   16        0.495   0.584   8.484   9.563
   17        1.086   1.328   0.146   2.560
   18        1.086   1.328   0.146   2.560
   19        1.086   1.328   0.146   2.560
   20        1.086   1.328   0.146   2.560
   21        1.086   1.328   0.146   2.560
   22        1.086   1.328   0.146   2.560
   23        1.085   1.323   0.146   2.555
   24        1.085   1.323   0.146   2.555
   25        1.085   1.323   0.146   2.555
   26        1.085   1.323   0.146   2.555
   27        1.085   1.323   0.146   2.555
   28        1.085   1.323   0.146   2.555
   29        1.086   1.327   0.147   2.559
   30        1.086   1.327   0.147   2.559
   31        1.086   1.329   0.146   2.560
   32        1.086   1.329   0.146   2.560
   33        0.297   0.361   5.133   5.791
   34        0.297   0.361   5.133   5.791
   35        0.297   0.361   5.133   5.791
   36        0.296   0.361   5.134   5.792
   37        0.296   0.361   5.134   5.792
   38        0.296   0.361   5.134   5.792
   39        0.296   0.361   5.134   5.792
   40        0.296   0.361   5.134   5.792
   41        0.296   0.361   5.134   5.792
   42        0.296   0.361   5.140   5.796
   43        0.296   0.361   5.122   5.780
   44        0.296   0.361   5.122   5.780
   45        0.297   0.362   5.132   5.791
   46        0.297   0.362   5.132   5.791
   47        0.297   0.362   5.132   5.791
   48        0.375   0.471   6.326   7.172
--------------------------------------------------
tot         30.105  36.440 221.381 287.926
 


 magnetization (x)
 
# of ion       s       p       d       tot
------------------------------------------
    1       -0.022  -0.033   0.151   0.096
    2       -0.022  -0.033   0.151   0.096
    3       -0.022  -0.033   0.151   0.096
    4       -0.022  -0.033   0.151   0.096
    5       -0.022  -0.033   0.151   0.096
    6       -0.022  -0.033   0.151   0.096
    7       -0.023  -0.033   0.157   0.100
    8       -0.023  -0.033   0.157   0.100
    9       -0.023  -0.033   0.157   0.100
   10       -0.023  -0.033   0.157   0.100
   11       -0.023  -0.033   0.157   0.100
   12       -0.023  -0.033   0.157   0.100
   13       -0.023  -0.033   0.149   0.093
   14       -0.023  -0.033   0.149   0.093
   15       -0.022  -0.032   0.160   0.106
   16       -0.022  -0.032   0.160   0.106
   17       -0.016  -0.090   0.006  -0.101
   18       -0.016  -0.090   0.006  -0.101
   19       -0.016  -0.090   0.006  -0.101
   20       -0.016  -0.090   0.006  -0.101
   21       -0.016  -0.090   0.006  -0.101
   22       -0.016  -0.090   0.006  -0.101
   23       -0.015  -0.086   0.004  -0.097
   24       -0.015  -0.086   0.004  -0.097
   25       -0.015  -0.086   0.004  -0.097
   26       -0.015  -0.086   0.004  -0.097
   27       -0.015  -0.086   0.004  -0.097
   28       -0.015  -0.086   0.004  -0.097
   29       -0.015  -0.091   0.006  -0.101
   30       -0.015  -0.091   0.006  -0.101
   31       -0.016  -0.092   0.006  -0.102
   32       -0.016  -0.092   0.006  -0.102
   33        0.018   0.014   2.591   2.623
   34        0.018   0.014   2.591   2.623
   35        0.018   0.014   2.591   2.623
   36        0.019   0.014   2.582   2.614
   37        0.019   0.014   2.582   2.614
   38        0.019   0.014   2.582   2.614
   39        0.019   0.014   2.582   2.614
   40        0.019   0.014   2.582   2.614
   41        0.019   0.014   2.582   2.614
   42        0.018   0.013   2.525   2.555
   43        0.019   0.015   2.678   2.713
   44        0.019   0.015   2.678   2.713
   45        0.017   0.015   2.586   2.618
   46        0.017   0.015   2.586   2.618
   47        0.017   0.015   2.586   2.618
   48        0.014   0.003   2.100   2.117
--------------------------------------------------
tot         -0.315  -1.739  43.543  41.489
 

 total amount of memory used by VASP MPI-rank0   570813. kBytes
=======================================================================

   base      :      30000. kBytes
   nonl-proj :      84427. kBytes
   fftplans  :       3906. kBytes
   grid      :      11074. kBytes
   one-center:        248. kBytes
   wavefun   :     441158. kBytes
 
  
  
 General timing and accounting informations for this job:
 ========================================================
  
                  Total CPU time used (sec):    13649.613
                            User time (sec):    13510.574
                          System time (sec):      139.039
                         Elapsed time (sec):    13722.980
  
                   Maximum memory used (kb):      826332.
                   Average memory used (kb):           0.
  
                          Minor page faults:        74573
                          Major page faults:          683
                 Voluntary context switches:         7901
