 running on   24 total cores
 distrk:  each k-point on   24 cores,    1 groups
 distr:  one band on    6 cores,    4 groups
 using from now: INCAR     
 vasp.6.1.1 19Jun20 (build Nov 30 2020 11:51:22) complex                        
  
 POSCAR found type information on POSCAR MnNiGeFe
 POSCAR found :  4 types and      48 ions
 scaLAPACK will be used
 -----------------------------------------------------------------------------
|                                                                             |
|               ----> ADVICE to this user running VASP <----                  |
|                                                                             |
|     You have a (more or less) 'large supercell' and for larger cells it     |
|     might be more efficient to use real-space projection operators.         |
|     Therefore, try LREAL= Auto in the INCAR file.                           |
|     Mind: For very accurate calculation, you might also keep the            |
|     reciprocal projection scheme (i.e. LREAL=.FALSE.).                      |
|                                                                             |
 -----------------------------------------------------------------------------

 LDA part: xc-table for Pade appr. of Perdew
 POSCAR, INCAR and KPOINTS ok, starting setup
 FFT: planning ...
 WAVECAR not read
 entering main loop
       N       E                     dE             d eps       ncg     rms          rms(c)
DAV:   1     0.282171499530E+04    0.28217E+04   -0.10895E+05 86400   0.104E+03
DAV:   2     0.177015177997E+03   -0.26447E+04   -0.23550E+04 86400   0.266E+02
DAV:   3    -0.267162730952E+03   -0.44418E+03   -0.36703E+03 86496   0.125E+02
DAV:   4    -0.298778500829E+03   -0.31616E+02   -0.30352E+02106168   0.394E+01
DAV:   5    -0.299586922818E+03   -0.80842E+00   -0.80671E+00104056   0.653E+00    0.104E+02
DAV:   6    -0.374629123571E+03   -0.75042E+02   -0.22690E+02109464   0.109E+02    0.114E+02
DAV:   7    -0.308386602321E+03    0.66243E+02   -0.18752E+02106056   0.923E+01    0.725E+01
DAV:   8    -0.331549268818E+03   -0.23163E+02   -0.45170E+01116528   0.618E+01    0.854E+01
DAV:   9    -0.314019408755E+03    0.17530E+02   -0.41145E+01121616   0.454E+01    0.474E+01
DAV:  10    -0.314802583437E+03   -0.78317E+00   -0.28184E+01115864   0.536E+01    0.617E+01
DAV:  11    -0.301048757681E+03    0.13754E+02   -0.21337E+01137456   0.370E+01    0.290E+01
DAV:  12    -0.310701359674E+03   -0.96526E+01   -0.94386E+00124952   0.257E+01    0.333E+01
DAV:  13    -0.308265359462E+03    0.24360E+01   -0.52544E+00124128   0.250E+01    0.146E+01
DAV:  14    -0.314566853139E+03   -0.63015E+01   -0.46121E+00138424   0.206E+01    0.272E+01
DAV:  15    -0.312729761139E+03    0.18371E+01   -0.52266E+00125536   0.189E+01    0.104E+01
DAV:  16    -0.312852264230E+03   -0.12250E+00   -0.12153E+00136376   0.850E+00    0.770E+00
DAV:  17    -0.312785772389E+03    0.66492E-01   -0.56833E-01117416   0.592E+00    0.480E+00
DAV:  18    -0.312915900311E+03   -0.13013E+00   -0.23620E-01120408   0.332E+00    0.344E+00
DAV:  19    -0.312943786752E+03   -0.27886E-01   -0.14172E-01119104   0.380E+00    0.280E+00
DAV:  20    -0.312920591505E+03    0.23195E-01   -0.68706E-02124280   0.242E+00    0.120E+00
DAV:  21    -0.312931019823E+03   -0.10428E-01   -0.27816E-02130952   0.133E+00    0.135E+00
DAV:  22    -0.312926441223E+03    0.45786E-02   -0.24432E-02113104   0.128E+00    0.882E-01
DAV:  23    -0.312930744258E+03   -0.43030E-02   -0.69834E-03133832   0.396E-01    0.108E+00
DAV:  24    -0.312930989185E+03   -0.24493E-03   -0.21720E-03115600   0.404E-01    0.105E+00
DAV:  25    -0.312929477950E+03    0.15112E-02   -0.69696E-04126032   0.265E-01    0.861E-01
DAV:  26    -0.312928118362E+03    0.13596E-02   -0.10572E-03136336   0.295E-01    0.544E-01
DAV:  27    -0.312927627269E+03    0.49109E-03   -0.68641E-04131992   0.229E-01    0.406E-01
DAV:  28    -0.312927623962E+03    0.33070E-05   -0.31582E-04140480   0.953E-02    0.309E-01
DAV:  29    -0.312927654947E+03   -0.30985E-04   -0.95887E-05121320   0.894E-02    0.252E-01
DAV:  30    -0.312927652500E+03    0.24472E-05   -0.98829E-05130848   0.859E-02    0.167E-01
DAV:  31    -0.312927702594E+03   -0.50094E-04   -0.72304E-05159208   0.586E-02    0.105E-01
DAV:  32    -0.312927705284E+03   -0.26900E-05   -0.36355E-05141608   0.458E-02    0.761E-02
DAV:  33    -0.312927706410E+03   -0.11253E-05   -0.22521E-05145328   0.239E-02    0.386E-02
DAV:  34    -0.312927708393E+03   -0.19832E-05   -0.64958E-06 95080   0.190E-02    0.301E-02
DAV:  35    -0.312927709633E+03   -0.12400E-05   -0.35424E-06 81008   0.144E-02    0.190E-02
DAV:  36    -0.312927710805E+03   -0.11718E-05   -0.21137E-06 55040   0.743E-03    0.953E-03
DAV:  37    -0.312927711263E+03   -0.45843E-06   -0.14950E-06 51656   0.835E-03
   1 F= -.31292771E+03 E0= -.31294272E+03  d E =0.450359E-01  mag=    46.0467
