 vasp.6.1.1 19Jun20 (build Nov 30 2020 11:51:22) complex                        
  
 executed on             LinuxIFC date 2021.03.23  22:18:07
 running on   24 total cores
 distrk:  each k-point on   24 cores,    1 groups
 distr:  one band on NCORE=   6 cores,    4 groups


--------------------------------------------------------------------------------------------------------


 INCAR:
 POTCAR:    PAW_PBE Mn 06Sep2000                  
 POTCAR:    PAW_PBE Ni 02Aug2007                  
 POTCAR:    PAW_PBE Ge 05Jan2001                  
 POTCAR:    PAW_PBE Fe 06Sep2000                  
 POTCAR:    PAW_PBE Mn 06Sep2000                  
   SHA256 =  791c87526310ff945dc83749a51ee60ee299d345ff72743aeb14609b9ed68bfc Mn/POTCAR             
   COPYR  = (c) Copyright 06Sep2000 Georg Kresse                                                    
   COPYR  = This file is part of the software VASP. Any use, copying, and all other rights are regul
   COPYR  = If you do not have a valid VASP license, you may not use, copy or distribute this file. 
   VRHFIN =Mn: d6 s1                                                                                
   LEXCH  = PE                                                                                      
   EATOM  =   416.7541 eV,   30.6306 Ry                                                             
                                                                                                    
   TITEL  = PAW_PBE Mn 06Sep2000                                                                    
   LULTRA =        F    use ultrasoft PP ?                                                          
   IUNSCR =        1    unscreen: 0-lin 1-nonlin 2-no                                               
   RPACOR =    2.000    partial core radius                                                         
   POMASS =   54.938; ZVAL   =    7.000    mass and valenz                                          
   RCORE  =    2.300    outmost cutoff radius                                                       
   RWIGS  =    2.500; RWIGS  =    1.323    wigner-seitz radius (au A)                               
   ENMAX  =  269.864; ENMIN  =  202.398 eV                                                          
   RCLOC  =    1.725    cutoff for local pot                                                        
   LCOR   =        T    correct aug charges                                                         
   LPAW   =        T    paw PP                                                                      
   EAUG   =  500.711                                                                                
   DEXC   =    0.000                                                                                
   RMAX   =    2.343    core radius for proj-oper                                                   
   RAUG   =    1.300    factor for augmentation sphere                                              
   RDEP   =    2.338    radius for radial grids                                                     
   RDEPT  =    1.911    core radius for aug-charge                                                  
                                                                                                    
   Atomic configuration                                                                             
    9 entries                                                                                       
     n  l   j            E        occ.                                                              
     1  0  0.50     -6424.8288   2.0000                                                             
     2  0  0.50      -739.1154   2.0000                                                             
     2  1  1.50      -625.3949   6.0000                                                             
     3  0  0.50       -81.6100   2.0000                                                             
     3  1  1.50       -50.4667   6.0000                                                             
     3  2  2.50        -3.3745   6.0000                                                             
     4  0  0.50        -4.1331   1.0000                                                             
     4  1  0.50        -4.0817   0.0000                                                             
     4  3  2.50        -1.3606   0.0000                                                             
   Description                                                                                      
     l       E           TYP  RCUT    TYP  RCUT                                                     
     2     -3.3744664     23  2.300                                                                 
     2     -4.7350490     23  2.300                                                                 
     0     -4.1331408     23  2.300                                                                 
     0      7.6656614     23  2.300                                                                 
     1     -2.7211652     23  2.300                                                                 
     1     20.4087390     23  2.300                                                                 
  local pseudopotential read in
  partial core-charges read in
  partial kinetic energy density read in
  atomic valenz-charges read in
  non local Contribution for L=           2  read in
    real space projection operators read in
  non local Contribution for L=           2  read in
    real space projection operators read in
  non local Contribution for L=           0  read in
    real space projection operators read in
  non local Contribution for L=           0  read in
    real space projection operators read in
  non local Contribution for L=           1  read in
    real space projection operators read in
  non local Contribution for L=           1  read in
    real space projection operators read in
    PAW grid and wavefunctions read in
 
   number of l-projection  operators is LMAX  =           6
   number of lm-projection operators is LMMAX =          18
 
 POTCAR:    PAW_PBE Ni 02Aug2007                  
   SHA256 =  0534bc51ca8003dfef23f56753fef9fdd3e22eac8d719fccacb59f3e6b7a69c7 Ni/POTCAR             
   COPYR  = (c) Copyright 02Aug2007 Georg Kresse                                                    
   COPYR  = This file is part of the software VASP. Any use, copying, and all other rights are regul
   COPYR  = If you do not have a valid VASP license, you may not use, copy or distribute this file. 
   VRHFIN =Ni:                                                                                      
   LEXCH  = PE                                                                                      
   EATOM  =  1077.6739 eV,   79.2068 Ry                                                             
                                                                                                    
   TITEL  = PAW_PBE Ni 02Aug2007                                                                    
   LULTRA =        F    use ultrasoft PP ?                                                          
   IUNSCR =        1    unscreen: 0-lin 1-nonlin 2-no                                               
   RPACOR =    2.000    partial core radius                                                         
   POMASS =   58.690; ZVAL   =   10.000    mass and valenz                                          
   RCORE  =    2.300    outmost cutoff radius                                                       
   RWIGS  =    2.430; RWIGS  =    1.286    wigner-seitz radius (au A)                               
   ENMAX  =  269.532; ENMIN  =  202.149 eV                                                          
   RCLOC  =    1.201    cutoff for local pot                                                        
   LCOR   =        T    correct aug charges                                                         
   LPAW   =        T    paw PP                                                                      
   EAUG   =  544.565                                                                                
   DEXC   =    0.000                                                                                
   RMAX   =    2.357    core radius for proj-oper                                                   
   RAUG   =    1.300    factor for augmentation sphere                                              
   RDEP   =    2.390    radius for radial grids                                                     
   RDEPT  =    1.838    core radius for aug-charge                                                  
                                                                                                    
   Atomic configuration                                                                             
    9 entries                                                                                       
     n  l   j            E        occ.                                                              
     1  0  0.50     -8206.4253   2.0000                                                             
     2  0  0.50      -976.1748   2.0000                                                             
     2  1  1.50      -839.0571   6.0000                                                             
     3  0  0.50      -105.9991   2.0000                                                             
     3  1  1.50       -66.4603   6.0000                                                             
     3  2  2.50        -4.6458   9.0000                                                             
     4  0  0.50        -4.4926   1.0000                                                             
     4  1  1.50        -4.0817   0.0000                                                             
     4  3  2.50        -1.3606   0.0000                                                             
   Description                                                                                      
     l       E           TYP  RCUT    TYP  RCUT                                                     
     2     -4.6457903     23  2.300                                                                 
     2     -6.0063729     23  2.300                                                                 
     0     -4.4925590     23  2.300                                                                 
     0      5.0102601     23  2.300                                                                 
     1     -2.7211652     23  2.300                                                                 
     1     16.5183231     23  2.300                                                                 
  local pseudopotential read in
  partial core-charges read in
  partial kinetic energy density read in
  atomic valenz-charges read in
  non local Contribution for L=           2  read in
    real space projection operators read in
  non local Contribution for L=           2  read in
    real space projection operators read in
  non local Contribution for L=           0  read in
    real space projection operators read in
  non local Contribution for L=           0  read in
    real space projection operators read in
  non local Contribution for L=           1  read in
    real space projection operators read in
  non local Contribution for L=           1  read in
    real space projection operators read in
    PAW grid and wavefunctions read in
 
   number of l-projection  operators is LMAX  =           6
   number of lm-projection operators is LMMAX =          18
 
 POTCAR:    PAW_PBE Ge 05Jan2001                  
   SHA256 =  7ff11deedcda39f1950abeda971a84a1f98a719a97bc9679a0df455c008734f8 Ge/POTCAR             
   COPYR  = (c) Copyright 05Jan2001 Georg Kresse                                                    
   COPYR  = This file is part of the software VASP. Any use, copying, and all other rights are regul
   COPYR  = If you do not have a valid VASP license, you may not use, copy or distribute this file. 
   VRHFIN =Ge: s2p2                                                                                 
   LEXCH  = PE                                                                                      
   EATOM  =   104.9960 eV,    7.7170 Ry                                                             
                                                                                                    
   TITEL  = PAW_PBE Ge 05Jan2001                                                                    
   LULTRA =        F    use ultrasoft PP ?                                                          
   IUNSCR =        1    unscreen: 0-lin 1-nonlin 2-no                                               
   RPACOR =    2.170    partial core radius                                                         
   POMASS =   72.610; ZVAL   =    4.000    mass and valenz                                          
   RCORE  =    2.300    outmost cutoff radius                                                       
   RWIGS  =    2.300; RWIGS  =    1.217    wigner-seitz radius (au A)                               
   ENMAX  =  173.807; ENMIN  =  130.355 eV                                                          
   ICORE  =        3    local potential                                                             
   LCOR   =        T    correct aug charges                                                         
   LPAW   =        T    paw PP                                                                      
   EAUG   =  385.843                                                                                
   DEXC   =    0.000                                                                                
   RMAX   =    2.342    core radius for proj-oper                                                   
   RAUG   =    1.300    factor for augmentation sphere                                              
   RDEP   =    2.318    radius for radial grids                                                     
   RDEPT  =    2.103    core radius for aug-charge                                                  
                                                                                                    
   Atomic configuration                                                                             
   10 entries                                                                                       
     n  l   j            E        occ.                                                              
     1  0  0.50    -10959.8463   2.0000                                                             
     2  0  0.50     -1371.6056   2.0000                                                             
     2  1  1.50     -1198.4791   6.0000                                                             
     3  0  0.50      -168.4733   2.0000                                                             
     3  1  1.50      -115.6019   6.0000                                                             
     3  2  2.50       -29.3106  10.0000                                                             
     4  0  0.50       -11.7309   2.0000                                                             
     4  1  0.50        -3.8952   2.0000                                                             
     4  2  1.50        -4.0817   0.0000                                                             
     4  3  2.50        -4.0817   0.0000                                                             
   Description                                                                                      
     l       E           TYP  RCUT    TYP  RCUT                                                     
     0    -11.7309493     23  2.300                                                                 
     0     -7.4578696     23  2.300                                                                 
     1     -3.8952261     23  2.300                                                                 
     1      6.1178114     23  2.300                                                                 
     2     -4.0817478     23  2.300                                                                 
     3     -1.3605826      7  2.300                                                                 
  local pseudopotential read in
  partial core-charges read in
  partial kinetic energy density read in
  atomic valenz-charges read in
  non local Contribution for L=           0  read in
    real space projection operators read in
  non local Contribution for L=           0  read in
    real space projection operators read in
  non local Contribution for L=           1  read in
    real space projection operators read in
  non local Contribution for L=           1  read in
    real space projection operators read in
  non local Contribution for L=           2  read in
    real space projection operators read in
    PAW grid and wavefunctions read in
 
   number of l-projection  operators is LMAX  =           5
   number of lm-projection operators is LMMAX =          13
 
 POTCAR:    PAW_PBE Fe 06Sep2000                  
   SHA256 =  cd5a22d9368cc8b5cc476bea79732366149640da08ac9009b0e1b7fc627eea28 Fe/POTCAR             
   COPYR  = (c) Copyright 06Sep2000 Georg Kresse                                                    
   COPYR  = This file is part of the software VASP. Any use, copying, and all other rights are regul
   COPYR  = If you do not have a valid VASP license, you may not use, copy or distribute this file. 
   VRHFIN =Fe:  d7 s1                                                                               
   LEXCH  = PE                                                                                      
   EATOM  =   594.3153 eV,   43.6809 Ry                                                             
                                                                                                    
   TITEL  = PAW_PBE Fe 06Sep2000                                                                    
   LULTRA =        F    use ultrasoft PP ?                                                          
   IUNSCR =        1    unscreen: 0-lin 1-nonlin 2-no                                               
   RPACOR =    2.000    partial core radius                                                         
   POMASS =   55.847; ZVAL   =    8.000    mass and valenz                                          
   RCORE  =    2.300    outmost cutoff radius                                                       
   RWIGS  =    2.460; RWIGS  =    1.302    wigner-seitz radius (au A)                               
   ENMAX  =  267.882; ENMIN  =  200.911 eV                                                          
   RCLOC  =    1.701    cutoff for local pot                                                        
   LCOR   =        T    correct aug charges                                                         
   LPAW   =        T    paw PP                                                                      
   EAUG   =  511.368                                                                                
   DEXC   =    0.000                                                                                
   RMAX   =    2.356    core radius for proj-oper                                                   
   RAUG   =    1.300    factor for augmentation sphere                                              
   RDEP   =    2.442    radius for radial grids                                                     
   RDEPT  =    1.890    core radius for aug-charge                                                  
                                                                                                    
   Atomic configuration                                                                             
    9 entries                                                                                       
     n  l   j            E        occ.                                                              
     1  0  0.50     -6993.8440   2.0000                                                             
     2  0  0.50      -814.6047   2.0000                                                             
     2  1  1.50      -693.3689   6.0000                                                             
     3  0  0.50       -89.4732   2.0000                                                             
     3  1  1.50       -55.6373   6.0000                                                             
     3  2  2.50        -3.8151   7.0000                                                             
     4  0  0.50        -4.2551   1.0000                                                             
     4  1  1.50        -3.4015   0.0000                                                             
     4  3  2.50        -1.3606   0.0000                                                             
   Description                                                                                      
     l       E           TYP  RCUT    TYP  RCUT                                                     
     2     -3.8151135     23  2.300                                                                 
     2     -5.1756961     23  2.300                                                                 
     0     -4.2550963     23  2.300                                                                 
     0      7.2035603     23  2.300                                                                 
     1     -2.7211652     23  2.300                                                                 
     1     18.4316424     23  2.300                                                                 
  local pseudopotential read in
  partial core-charges read in
  partial kinetic energy density read in
  atomic valenz-charges read in
  non local Contribution for L=           2  read in
    real space projection operators read in
  non local Contribution for L=           2  read in
    real space projection operators read in
  non local Contribution for L=           0  read in
    real space projection operators read in
  non local Contribution for L=           0  read in
    real space projection operators read in
  non local Contribution for L=           1  read in
    real space projection operators read in
  non local Contribution for L=           1  read in
    real space projection operators read in
    PAW grid and wavefunctions read in
 
   number of l-projection  operators is LMAX  =           6
   number of lm-projection operators is LMMAX =          18
 
 -----------------------------------------------------------------------------
|                                                                             |
|               ----> ADVICE to this user running VASP <----                  |
|                                                                             |
|     You have a (more or less) 'large supercell' and for larger cells it     |
|     might be more efficient to use real-space projection operators.         |
|     Therefore, try LREAL= Auto in the INCAR file.                           |
|     Mind: For very accurate calculation, you might also keep the            |
|     reciprocal projection scheme (i.e. LREAL=.FALSE.).                      |
|                                                                             |
 -----------------------------------------------------------------------------

  PAW_PBE Mn 06Sep2000                  :
 energy of atom  1       EATOM= -416.7541
 kinetic energy error for atom=    0.0033 (will be added to EATOM!!)
  PAW_PBE Ni 02Aug2007                  :
 energy of atom  2       EATOM=-1077.6739
 kinetic energy error for atom=    0.0038 (will be added to EATOM!!)
  PAW_PBE Ge 05Jan2001                  :
 energy of atom  3       EATOM= -104.9960
 kinetic energy error for atom=    0.0003 (will be added to EATOM!!)
  PAW_PBE Fe 06Sep2000                  :
 energy of atom  4       EATOM= -594.3153
 kinetic energy error for atom=    0.0034 (will be added to EATOM!!)
 
 
 POSCAR: MnNiGe_orth
  positions in direct lattice
  velocities in cartesian coordinates
 exchange correlation table for  LEXCH =        8
   RHO(1)=    0.500       N(1)  =     2000
   RHO(2)=  100.500       N(2)  =     4000
 


--------------------------------------------------------------------------------------------------------


 ion  position               nearest neighbor table
   1  0.242  0.250  0.178-  41 2.46  45 2.46  32 2.51  44 2.70  40 2.70  16 2.73  18 2.73  29 2.80
                            25 2.80  24 2.86  28 2.86  14 3.10  10 3.10   7 3.14   3 3.14
   2  0.242  0.750  0.178-  41 2.46  45 2.46  33 2.51  44 2.70  40 2.70  17 2.73  19 2.73  29 2.80
                            25 2.80  24 2.86  28 2.86  14 3.10  10 3.10   8 3.14   4 3.14
   3  0.492  0.250  0.322-  42 2.46  46 2.46  34 2.51  45 2.70  41 2.70  18 2.73  20 2.73  30 2.80
                            26 2.80  25 2.86  29 2.86  11 3.10  48 3.10   1 3.14   5 3.14
   4  0.492  0.750  0.322-  42 2.46  46 2.46  35 2.51  45 2.70  41 2.70  19 2.73  21 2.73  30 2.80
                            26 2.80  25 2.86  29 2.86  11 3.10  48 3.10   2 3.14   6 3.14
   5  0.742  0.250  0.178-  43 2.46  47 2.46  36 2.51  46 2.70  42 2.70  20 2.73  22 2.73  31 2.80
                            27 2.80  26 2.86  30 2.86  15 3.10  12 3.10   7 3.14   3 3.14
   6  0.742  0.750  0.178-  43 2.46  47 2.46  37 2.51  46 2.70  42 2.70  21 2.73  23 2.73  31 2.80
                            27 2.80  26 2.86  30 2.86  15 3.10  12 3.10   8 3.14   4 3.14
   7  0.992  0.250  0.322-  40 2.46  44 2.46  38 2.51  43 2.70  47 2.70  22 2.73  16 2.73  28 2.80
                            24 2.80  31 2.86  27 2.86  13 3.10   9 3.10   1 3.14   5 3.14
   8  0.992  0.750  0.322-  40 2.46  44 2.46  39 2.51  43 2.70  47 2.70  23 2.73  17 2.73  28 2.80
                            24 2.80  31 2.86  27 2.86  13 3.10   9 3.10   2 3.14   6 3.14
   9  0.008  0.000  0.678-  38 2.46  39 2.46  40 2.51  33 2.70  32 2.70  24 2.73  27 2.73  23 2.80
                            22 2.80  17 2.86  16 2.86   8 3.10   7 3.10  10 3.14  12 3.14
  10  0.258  0.000  0.822-  32 2.46  33 2.46  41 2.51  35 2.70  34 2.70  25 2.73  24 2.73  17 2.80
                            16 2.80  19 2.86  18 2.86   2 3.10   1 3.10  11 3.14   9 3.14
  11  0.508  0.000  0.678-  34 2.46  35 2.46  42 2.51  37 2.70  36 2.70  26 2.73  25 2.73  19 2.80
                            18 2.80  21 2.86  20 2.86   4 3.10   3 3.10  10 3.14  12 3.14
  12  0.758  0.000  0.822-  36 2.46  37 2.46  43 2.51  39 2.70  38 2.70  27 2.73  26 2.73  21 2.80
                            20 2.80  23 2.86  22 2.86   6 3.10   5 3.10  11 3.14   9 3.14
  13  0.008  0.500  0.678-  38 2.46  39 2.46  44 2.51  33 2.70  32 2.70  28 2.73  31 2.73  23 2.80
                            22 2.80  17 2.86  16 2.86   8 3.10   7 3.10  14 3.14  15 3.14
  14  0.258  0.500  0.822-  32 2.46  33 2.46  45 2.51  35 2.70  34 2.70  29 2.73  28 2.73  17 2.80
                            16 2.80  19 2.86  18 2.86   2 3.10   1 3.10  48 3.14  13 3.14
  15  0.758  0.500  0.822-  36 2.46  37 2.46  47 2.51  39 2.70  38 2.70  31 2.73  30 2.73  21 2.80
                            20 2.80  23 2.86  22 2.86   6 3.10   5 3.10  48 3.14  13 3.14
  16  0.177  0.250  0.553-  40 2.29  44 2.29  32 2.35  34 2.41  25 2.64  29 2.64   1 2.73   7 2.73
                            10 2.80  14 2.80  13 2.86   9 2.86
  17  0.177  0.750  0.553-  40 2.29  44 2.29  33 2.35  35 2.41  25 2.64  29 2.64   2 2.73   8 2.73
                            10 2.80  14 2.80  13 2.86   9 2.86
  18  0.427  0.250  0.947-  41 2.29  45 2.29  34 2.35  36 2.41  26 2.64  30 2.64   3 2.73   1 2.73
                            11 2.80  48 2.80  14 2.86  10 2.86
  19  0.427  0.750  0.947-  41 2.29  45 2.29  35 2.35  37 2.41  26 2.64  30 2.64   4 2.73   2 2.73
                            11 2.80  48 2.80  14 2.86  10 2.86
  20  0.677  0.250  0.553-  42 2.29  46 2.29  36 2.35  38 2.41  27 2.64  31 2.64   5 2.73   3 2.73
                            12 2.80  15 2.80  11 2.86  48 2.86
  21  0.677  0.750  0.553-  42 2.29  46 2.29  37 2.35  39 2.41  27 2.64  31 2.64   6 2.73   4 2.73
                            12 2.80  15 2.80  11 2.86  48 2.86
  22  0.927  0.250  0.947-  43 2.29  47 2.29  38 2.35  32 2.41  24 2.64  28 2.64   7 2.73   5 2.73
                             9 2.80  13 2.80  12 2.86  15 2.86
  23  0.927  0.750  0.947-  43 2.29  47 2.29  39 2.35  33 2.41  24 2.64  28 2.64   8 2.73   6 2.73
                             9 2.80  13 2.80  12 2.86  15 2.86
  24  0.073  0.000  0.053-  32 2.29  33 2.29  40 2.35  43 2.41  22 2.64  23 2.64   9 2.73  10 2.73
                             7 2.80   8 2.80   1 2.86   2 2.86
  25  0.323  0.000  0.447-  34 2.29  35 2.29  41 2.35  40 2.41  16 2.64  17 2.64  10 2.73  11 2.73
                             1 2.80   2 2.80   3 2.86   4 2.86
  26  0.573  0.000  0.053-  36 2.29  37 2.29  42 2.35  41 2.41  18 2.64  19 2.64  11 2.73  12 2.73
                             3 2.80   4 2.80   5 2.86   6 2.86
  27  0.823  0.000  0.447-  38 2.29  39 2.29  43 2.35  42 2.41  20 2.64  21 2.64  12 2.73   9 2.73
                             5 2.80   6 2.80   7 2.86   8 2.86
  28  0.073  0.500  0.053-  32 2.29  33 2.29  44 2.35  47 2.41  22 2.64  23 2.64  13 2.73  14 2.73
                             7 2.80   8 2.80   1 2.86   2 2.86
  29  0.323  0.500  0.447-  34 2.29  35 2.29  45 2.35  44 2.41  16 2.64  17 2.64  14 2.73  48 2.73
                             1 2.80   2 2.80   3 2.86   4 2.86
  30  0.573  0.500  0.053-  36 2.29  37 2.29  46 2.35  45 2.41  18 2.64  19 2.64  48 2.73  15 2.73
                             3 2.80   4 2.80   5 2.86   6 2.86
  31  0.823  0.500  0.447-  38 2.29  39 2.29  47 2.35  46 2.41  20 2.64  21 2.64  15 2.73  13 2.73
                             5 2.80   6 2.80   7 2.86   8 2.86
  32  0.125  0.250  0.878-  24 2.29  28 2.29  16 2.35  22 2.41  10 2.46  14 2.46   1 2.51  13 2.70
                             9 2.70
  33  0.125  0.750  0.878-  24 2.29  28 2.29  17 2.35  23 2.41  10 2.46  14 2.46   2 2.51  13 2.70
                             9 2.70
  34  0.375  0.250  0.622-  25 2.29  29 2.29  18 2.35  16 2.41  11 2.46  48 2.46   3 2.51  14 2.70
                            10 2.70
  35  0.375  0.750  0.622-  25 2.29  29 2.29  19 2.35  17 2.41  11 2.46  48 2.46   4 2.51  14 2.70
                            10 2.70
  36  0.625  0.250  0.878-  26 2.29  30 2.29  20 2.35  18 2.41  12 2.46  15 2.46   5 2.51  11 2.70
                            48 2.70
  37  0.625  0.750  0.878-  26 2.29  30 2.29  21 2.35  19 2.41  12 2.46  15 2.46   6 2.51  11 2.70
                            48 2.70
  38  0.875  0.250  0.622-  27 2.29  31 2.29  22 2.35  20 2.41   9 2.46  13 2.46   7 2.51  12 2.70
                            15 2.70
  39  0.875  0.750  0.622-  27 2.29  31 2.29  23 2.35  21 2.41   9 2.46  13 2.46   8 2.51  12 2.70
                            15 2.70
  40  0.125  0.000  0.378-  16 2.29  17 2.29  24 2.35  25 2.41   7 2.46   8 2.46   9 2.51   2 2.70
                             1 2.70
  41  0.375  0.000  0.122-  18 2.29  19 2.29  25 2.35  26 2.41   1 2.46   2 2.46  10 2.51   4 2.70
                             3 2.70
  42  0.625  0.000  0.378-  20 2.29  21 2.29  26 2.35  27 2.41   3 2.46   4 2.46  11 2.51   6 2.70
                             5 2.70
  43  0.875  0.000  0.122-  22 2.29  23 2.29  27 2.35  24 2.41   5 2.46   6 2.46  12 2.51   8 2.70
                             7 2.70
  44  0.125  0.500  0.378-  16 2.29  17 2.29  28 2.35  29 2.41   7 2.46   8 2.46  13 2.51   2 2.70
                             1 2.70
  45  0.375  0.500  0.122-  18 2.29  19 2.29  29 2.35  30 2.41   1 2.46   2 2.46  14 2.51   4 2.70
                             3 2.70
  46  0.625  0.500  0.378-  20 2.29  21 2.29  30 2.35  31 2.41   3 2.46   4 2.46  48 2.51   6 2.70
                             5 2.70
  47  0.875  0.500  0.122-  22 2.29  23 2.29  31 2.35  28 2.41   5 2.46   6 2.46  15 2.51   8 2.70
                             7 2.70
  48  0.508  0.500  0.678-  34 2.46  35 2.46  46 2.51  37 2.70  36 2.70  30 2.73  29 2.73  19 2.80
                            18 2.80  21 2.86  20 2.86   4 3.10   3 3.10  14 3.14  15 3.14
 
  LATTYP: Found a simple orthorhombic cell.
 ALAT       =     6.9741954396
 B/A-ratio  =     1.0555008508
 C/A-ratio  =     1.7085169161
  
  Lattice vectors:
  
 A1 = (   0.0000000000,   0.0000000000,  -6.9741954396)
 A2 = (   0.0000000000,  -7.3612692201,   0.0000000000)
 A3 = ( -11.9155308843,   0.0000000000,   0.0000000000)


Analysis of symmetry for initial positions (statically):
=====================================================================
 Subroutine PRICEL returns:
 Original cell was already a primitive cell.
 

 Routine SETGRP: Setting up the symmetry group for a 
 simple orthorhombic supercell.


 Subroutine GETGRP returns: Found  2 space group operations
 (whereof  2 operations were pure point group operations)
 out of a pool of  8 trial point group operations.


The static configuration has the point symmetry C_1h.


Analysis of symmetry for dynamics (positions and initial velocities):
=====================================================================
 Subroutine PRICEL returns:
 Original cell was already a primitive cell.
 

 Routine SETGRP: Setting up the symmetry group for a 
 simple orthorhombic supercell.


 Subroutine GETGRP returns: Found  2 space group operations
 (whereof  2 operations were pure point group operations)
 out of a pool of  8 trial point group operations.


The dynamic configuration has the point symmetry C_1h.


Analysis of structural, dynamic, and magnetic symmetry:
=====================================================================
 Subroutine PRICEL returns:
 Original cell was already a primitive cell.
 

 Routine SETGRP: Setting up the symmetry group for a 
 simple orthorhombic supercell.


 Subroutine GETGRP returns: Found  2 space group operations
 (whereof  2 operations were pure point group operations)
 out of a pool of  8 trial point group operations.


The magnetic configuration has the point symmetry C_1h.


 Subroutine INISYM returns: Found  2 space group operations
 (whereof  2 operations are pure point group operations),
 and found     1 'primitive' translations


----------------------------------------------------------------------------------------

                                     Primitive cell                                     

  volume of cell :     611.7306

  direct lattice vectors                    reciprocal lattice vectors
    11.915530884  0.000000000  0.000000000     0.083924083  0.000000000  0.000000000
     0.000000000  7.361269220  0.000000000     0.000000000  0.135846139  0.000000000
     0.000000000  0.000000000  6.974195440     0.000000000  0.000000000  0.143385715

  length of vectors
    11.915530884  7.361269220  6.974195440     0.083924083  0.135846139  0.143385715

  position of ions in fractional coordinates (direct lattice)
     0.241899997  0.250000000  0.178299993
     0.241899997  0.750000000  0.178299993
     0.491899997  0.250000000  0.321700007
     0.491899997  0.750000000  0.321700007
     0.741900027  0.250000000  0.178299993
     0.741900027  0.750000000  0.178299993
     0.991900027  0.250000000  0.321700007
     0.991900027  0.750000000  0.321700007
     0.008100000  0.000000000  0.678300023
     0.258100003  0.000000000  0.821699977
     0.508099973  0.000000000  0.678300023
     0.758099973  0.000000000  0.821699977
     0.008100000  0.500000000  0.678300023
     0.258100003  0.500000000  0.821699977
     0.758099973  0.500000000  0.821699977
     0.176699996  0.250000000  0.553300023
     0.176699996  0.750000000  0.553300023
     0.426699996  0.250000000  0.946699977
     0.426699996  0.750000000  0.946699977
     0.676699996  0.250000000  0.553300023
     0.676699996  0.750000000  0.553300023
     0.926699996  0.250000000  0.946699977
     0.926699996  0.750000000  0.946699977
     0.073299997  0.000000000  0.053300001
     0.323300004  0.000000000  0.446700007
     0.573300004  0.000000000  0.053300001
     0.823300004  0.000000000  0.446700007
     0.073299997  0.500000000  0.053300001
     0.323300004  0.500000000  0.446700007
     0.573300004  0.500000000  0.053300001
     0.823300004  0.500000000  0.446700007
     0.125249997  0.250000000  0.878300011
     0.125249997  0.750000000  0.878300011
     0.375250012  0.250000000  0.621699989
     0.375250012  0.750000000  0.621699989
     0.625249982  0.250000000  0.878300011
     0.625249982  0.750000000  0.878300011
     0.875249982  0.250000000  0.621699989
     0.875249982  0.750000000  0.621699989
     0.124750003  0.000000000  0.378300011
     0.374749988  0.000000000  0.121699996
     0.624750018  0.000000000  0.378300011
     0.874750018  0.000000000  0.121699996
     0.124750003  0.500000000  0.378300011
     0.374749988  0.500000000  0.121699996
     0.624750018  0.500000000  0.378300011
     0.874750018  0.500000000  0.121699996
     0.508099973  0.500000000  0.678300023

  ion indices of the primitive-cell ions
   primitive index   ion index
                 1           1
                 2           2
                 3           3
                 4           4
                 5           5
                 6           6
                 7           7
                 8           8
                 9           9
                10          10
                11          11
                12          12
                13          13
                14          14
                15          15
                16          16
                17          17
                18          18
                19          19
                20          20
                21          21
                22          22
                23          23
                24          24
                25          25
                26          26
                27          27
                28          28
                29          29
                30          30
                31          31
                32          32
                33          33
                34          34
                35          35
                36          36
                37          37
                38          38
                39          39
                40          40
                41          41
                42          42
                43          43
                44          44
                45          45
                46          46
                47          47
                48          48

----------------------------------------------------------------------------------------

 
 
 KPOINTS: Auto                                    

Automatic generation of k-mesh.
Space group operators:
 irot       det(A)        alpha          n_x          n_y          n_z        tau_x        tau_y        tau_z
    1     1.000000     0.000000     1.000000     0.000000     0.000000     0.000000     0.000000     0.000000
    2    -1.000000   180.000000     0.000000     1.000000     0.000000     0.000000     0.000000     0.000000
 
 Subroutine IBZKPT returns following result:
 ===========================================
 
 Found     60 irreducible k-points:
 
 Following reciprocal coordinates:
            Coordinates               Weight
  0.000000  0.000000  0.000000      1.000000
  0.250000  0.000000  0.000000      2.000000
  0.500000  0.000000  0.000000      1.000000
  0.000000  0.142857  0.000000      2.000000
  0.250000  0.142857  0.000000      4.000000
  0.500000  0.142857  0.000000      2.000000
  0.000000  0.285714  0.000000      2.000000
  0.250000  0.285714  0.000000      4.000000
  0.500000  0.285714  0.000000      2.000000
  0.000000  0.428571  0.000000      2.000000
  0.250000  0.428571  0.000000      4.000000
  0.500000  0.428571  0.000000      2.000000
  0.000000  0.000000  0.142857      2.000000
  0.250000  0.000000  0.142857      2.000000
 -0.250000  0.000000  0.142857      2.000000
  0.500000  0.000000  0.142857      2.000000
  0.000000  0.142857  0.142857      4.000000
  0.250000  0.142857  0.142857      4.000000
 -0.250000 -0.142857  0.142857      4.000000
  0.500000  0.142857  0.142857      4.000000
  0.000000  0.285714  0.142857      4.000000
  0.250000  0.285714  0.142857      4.000000
 -0.250000 -0.285714  0.142857      4.000000
  0.500000  0.285714  0.142857      4.000000
  0.000000  0.428571  0.142857      4.000000
  0.250000  0.428571  0.142857      4.000000
 -0.250000 -0.428571  0.142857      4.000000
  0.500000  0.428571  0.142857      4.000000
  0.000000  0.000000  0.285714      2.000000
  0.250000  0.000000  0.285714      2.000000
 -0.250000  0.000000  0.285714      2.000000
  0.500000  0.000000  0.285714      2.000000
  0.000000  0.142857  0.285714      4.000000
  0.250000  0.142857  0.285714      4.000000
 -0.250000 -0.142857  0.285714      4.000000
  0.500000  0.142857  0.285714      4.000000
  0.000000  0.285714  0.285714      4.000000
  0.250000  0.285714  0.285714      4.000000
 -0.250000 -0.285714  0.285714      4.000000
  0.500000  0.285714  0.285714      4.000000
  0.000000  0.428571  0.285714      4.000000
  0.250000  0.428571  0.285714      4.000000
 -0.250000 -0.428571  0.285714      4.000000
  0.500000  0.428571  0.285714      4.000000
  0.000000  0.000000  0.428571      2.000000
  0.250000  0.000000  0.428571      2.000000
 -0.250000  0.000000  0.428571      2.000000
  0.500000  0.000000  0.428571      2.000000
  0.000000  0.142857  0.428571      4.000000
  0.250000  0.142857  0.428571      4.000000
 -0.250000 -0.142857  0.428571      4.000000
  0.500000  0.142857  0.428571      4.000000
  0.000000  0.285714  0.428571      4.000000
  0.250000  0.285714  0.428571      4.000000
 -0.250000 -0.285714  0.428571      4.000000
  0.500000  0.285714  0.428571      4.000000
  0.000000  0.428571  0.428571      4.000000
  0.250000  0.428571  0.428571      4.000000
 -0.250000 -0.428571  0.428571      4.000000
  0.500000  0.428571  0.428571      4.000000
 
 Following cartesian coordinates:
            Coordinates               Weight
  0.000000  0.000000  0.000000      1.000000
  0.020771  0.000000  0.000000      2.000000
  0.041542  0.000000  0.000000      1.000000
  0.000000  0.019213  0.000000      2.000000
  0.020771  0.019213  0.000000      4.000000
  0.041542  0.019213  0.000000      2.000000
  0.000000  0.038425  0.000000      2.000000
  0.020771  0.038425  0.000000      4.000000
  0.041542  0.038425  0.000000      2.000000
  0.000000  0.057638  0.000000      2.000000
  0.020771  0.057638  0.000000      4.000000
  0.041542  0.057638  0.000000      2.000000
  0.000000  0.000000  0.020279      2.000000
  0.020771  0.000000  0.020279      2.000000
 -0.020771  0.000000  0.020279      2.000000
  0.041542  0.000000  0.020279      2.000000
  0.000000  0.019213  0.020279      4.000000
  0.020771  0.019213  0.020279      4.000000
 -0.020771 -0.019213  0.020279      4.000000
  0.041542  0.019213  0.020279      4.000000
  0.000000  0.038425  0.020279      4.000000
  0.020771  0.038425  0.020279      4.000000
 -0.020771 -0.038425  0.020279      4.000000
  0.041542  0.038425  0.020279      4.000000
  0.000000  0.057638  0.020279      4.000000
  0.020771  0.057638  0.020279      4.000000
 -0.020771 -0.057638  0.020279      4.000000
  0.041542  0.057638  0.020279      4.000000
  0.000000  0.000000  0.040558      2.000000
  0.020771  0.000000  0.040558      2.000000
 -0.020771  0.000000  0.040558      2.000000
  0.041542  0.000000  0.040558      2.000000
  0.000000  0.019213  0.040558      4.000000
  0.020771  0.019213  0.040558      4.000000
 -0.020771 -0.019213  0.040558      4.000000
  0.041542  0.019213  0.040558      4.000000
  0.000000  0.038425  0.040558      4.000000
  0.020771  0.038425  0.040558      4.000000
 -0.020771 -0.038425  0.040558      4.000000
  0.041542  0.038425  0.040558      4.000000
  0.000000  0.057638  0.040558      4.000000
  0.020771  0.057638  0.040558      4.000000
 -0.020771 -0.057638  0.040558      4.000000
  0.041542  0.057638  0.040558      4.000000
  0.000000  0.000000  0.060837      2.000000
  0.020771  0.000000  0.060837      2.000000
 -0.020771  0.000000  0.060837      2.000000
  0.041542  0.000000  0.060837      2.000000
  0.000000  0.019213  0.060837      4.000000
  0.020771  0.019213  0.060837      4.000000
 -0.020771 -0.019213  0.060837      4.000000
  0.041542  0.019213  0.060837      4.000000
  0.000000  0.038425  0.060837      4.000000
  0.020771  0.038425  0.060837      4.000000
 -0.020771 -0.038425  0.060837      4.000000
  0.041542  0.038425  0.060837      4.000000
  0.000000  0.057638  0.060837      4.000000
  0.020771  0.057638  0.060837      4.000000
 -0.020771 -0.057638  0.060837      4.000000
  0.041542  0.057638  0.060837      4.000000
 


--------------------------------------------------------------------------------------------------------




 Dimension of arrays:
   k-points           NKPTS =     60   k-points in BZ     NKDIM =     60   number of bands    NBANDS=    360
   number of dos      NEDOS =    301   number of ions     NIONS =     48
   non local maximal  LDIM  =      6   non local SUM 2l+1 LMDIM =     18
   total plane-waves  NPLWV = 217728
   max r-space proj   IRMAX =      1   max aug-charges    IRDMAX=  19542
   dimension x,y,z NGX =    84 NGY =   54 NGZ =   48
   dimension x,y,z NGXF=   168 NGYF=  108 NGZF=   96
   support grid    NGXF=   168 NGYF=  108 NGZF=   96
   ions per type =              15  16  16   1
   NGX,Y,Z   is equivalent  to a cutoff of  11.72, 12.20, 11.44 a.u.
   NGXF,Y,Z  is equivalent  to a cutoff of  23.44, 24.39, 22.88 a.u.

 SYSTEM =  MnFeNiGe_mag_orth-scf                   
 POSCAR =  MnNiGe_orth                             

 Startparameter for this run:
   NWRITE =      2    write-flag & timer
   PREC   = accura    normal or accurate (medium, high low for compatibility)
   ISTART =      0    job   : 0-new  1-cont  2-samecut
   ICHARG =      2    charge: 1-file 2-atom 10-const
   ISPIN  =      2    spin polarized calculation?
   LNONCOLLINEAR =      F non collinear calculations
   LSORBIT =      F    spin-orbit coupling
   INIWAV =      1    electr: 0-lowe 1-rand  2-diag
   LASPH  =      F    aspherical Exc in radial PAW
   METAGGA=      F    non-selfconsistent MetaGGA calc.

 Electronic Relaxation 1
   ENCUT  =  450.0 eV  33.07 Ry    5.75 a.u.  20.61 12.73 12.06*2*pi/ulx,y,z
   ENINI  =  450.0     initial cutoff
   ENAUG  =  544.6 eV  augmentation charge cutoff
   NELM   =     60;   NELMIN=  5; NELMDL= -5     # of ELM steps 
   EDIFF  = 0.1E-05   stopping-criterion for ELM
   LREAL  =      F    real-space projection
   NLSPLINE    = F    spline interpolate recip. space projectors
   LCOMPAT=      F    compatible to vasp.4.4
   GGA_COMPAT  = T    GGA compatible to vasp.4.4-vasp.4.6
   LMAXPAW     = -100 max onsite density
   LMAXMIX     =    2 max onsite mixed and CHGCAR
   VOSKOWN=      0    Vosko Wilk Nusair interpolation
   ROPT   =    0.00000   0.00000   0.00000   0.00000
 Ionic relaxation
   EDIFFG = 0.1E-04   stopping-criterion for IOM
   NSW    =      0    number of steps for IOM
   NBLOCK =      1;   KBLOCK =      1    inner block; outer block 
   IBRION =     -1    ionic relax: 0-MD 1-quasi-New 2-CG
   NFREE  =      0    steps in history (QN), initial steepest desc. (CG)
   ISIF   =      6    stress and relaxation
   IWAVPR =     10    prediction:  0-non 1-charg 2-wave 3-comb
   ISYM   =      2    0-nonsym 1-usesym 2-fastsym
   LCORR  =      T    Harris-Foulkes like correction to forces

   POTIM  = 0.5000    time-step for ionic-motion
   TEIN   =    0.0    initial temperature
   TEBEG  =    0.0;   TEEND  =   0.0 temperature during run
   SMASS  =  -3.00    Nose mass-parameter (am)
   estimated Nose-frequenzy (Omega)   =  0.10E-29 period in steps = 0.13E+47 mass=  -0.324E-26a.u.
   SCALEE = 1.0000    scale energy and forces
   NPACO  =    256;   APACO  = 16.0  distance and # of slots for P.C.
   PSTRESS=    0.0 pullay stress

  Mass of Ions in am
   POMASS =  54.94 58.69 72.61 55.85
  Ionic Valenz
   ZVAL   =   7.00 10.00  4.00  8.00
  Atomic Wigner-Seitz radii
   RWIGS  =  -1.00 -1.00 -1.00 -1.00
  virtual crystal weights 
   VCA    =   1.00  1.00  1.00  1.00
   NELECT =     337.0000    total number of electrons
   NUPDOWN=      -1.0000    fix difference up-down

 DOS related values:
   EMIN   =  10.00;   EMAX   =-10.00  energy-range for DOS
   EFERMI =   0.00
   ISMEAR =     1;   SIGMA  =   0.20  broadening in eV -4-tet -1-fermi 0-gaus

 Electronic relaxation 2 (details)
   IALGO  =     38    algorithm
   LDIAG  =      T    sub-space diagonalisation (order eigenvalues)
   LSUBROT=      F    optimize rotation matrix (better conditioning)
   TURBO    =      0    0=normal 1=particle mesh
   IRESTART =      0    0=no restart 2=restart with 2 vectors
   NREBOOT  =      0    no. of reboots
   NMIN     =      0    reboot dimension
   EREF     =   0.00    reference energy to select bands
   IMIX   =      4    mixing-type and parameters
     AMIX     =   0.40;   BMIX     =  1.00
     AMIX_MAG =   1.60;   BMIX_MAG =  1.00
     AMIN     =   0.10
     WC   =   100.;   INIMIX=   1;  MIXPRE=   1;  MAXMIX= -45

 Intra band minimization:
   WEIMIN = 0.0000     energy-eigenvalue tresh-hold
   EBREAK =  0.69E-09  absolut break condition
   DEPER  =   0.30     relativ break condition  

   TIME   =   0.40     timestep for ELM

  volume/ion in A,a.u.               =      12.74        86.00
  Fermi-wavevector in a.u.,A,eV,Ry     =   1.342038  2.536084 24.504981  1.801065
  Thomas-Fermi vector in A             =   2.470224
 
 Write flags
   LWAVE        =      F    write WAVECAR
   LDOWNSAMPLE  =      F    k-point downsampling of WAVECAR
   LCHARG       =      T    write CHGCAR
   LVTOT        =      F    write LOCPOT, total local potential
   LVHAR        =      F    write LOCPOT, Hartree potential only
   LELF         =      F    write electronic localiz. function (ELF)
   LORBIT       =     11    0 simple, 1 ext, 2 COOP (PROOUT), +10 PAW based schemes


 Dipole corrections
   LMONO  =      F    monopole corrections only (constant potential shift)
   LDIPOL =      F    correct potential (dipole corrections)
   IDIPOL =      0    1-x, 2-y, 3-z, 4-all directions 
   EPSILON=  1.0000000 bulk dielectric constant

 Exchange correlation treatment:
   GGA     =    --    GGA type
   LEXCH   =     8    internal setting for exchange type
   VOSKOWN=      0    Vosko Wilk Nusair interpolation
   LHFCALC =     F    Hartree Fock is set to
   LHFONE  =     F    Hartree Fock one center treatment
   AEXX    =    0.0000 exact exchange contribution

 Linear response parameters
   LEPSILON=     F    determine dielectric tensor
   LRPA    =     F    only Hartree local field effects (RPA)
   LNABLA  =     F    use nabla operator in PAW spheres
   LVEL    =     F    velocity operator in full k-point grid
   LINTERFAST=   F  fast interpolation
   KINTER  =     0    interpolate to denser k-point grid
   CSHIFT  =0.1000    complex shift for real part using Kramers Kronig
   OMEGAMAX=  -1.0    maximum frequency
   DEG_THRESHOLD= 0.2000000E-02 threshold for treating states as degnerate
   RTIME   =   -0.100 relaxation time in fs
  (WPLASMAI=    0.000 imaginary part of plasma frequency in eV, 0.658/RTIME)
   DFIELD  = 0.0000000 0.0000000 0.0000000 field for delta impulse in time
 
 Orbital magnetization related:
   ORBITALMAG=     F  switch on orbital magnetization
   LCHIMAG   =     F  perturbation theory with respect to B field
   DQ        =  0.001000  dq finite difference perturbation B field
   LLRAUG    =     F  two centre corrections for induced B field



--------------------------------------------------------------------------------------------------------


 Static calculation
 charge density and potential will be updated during run
 spin polarized calculation
 Variant of blocked Davidson
 Davidson routine will perform the subspace rotation
 perform sub-space diagonalisation
    after iterative eigenvector-optimisation
 modified Broyden-mixing scheme, WC =      100.0
 initial mixing is a Kerker type mixing with AMIX =  0.4000 and BMIX =      1.0000
 Hartree-type preconditioning will be used
 using additional bands          191
 reciprocal scheme for non local part
 use partial core corrections
 calculate Harris-corrections to forces 
   (improved forces if not selfconsistent)
 use gradient corrections 
 use of overlap-Matrix (Vanderbilt PP)
 Methfessel and Paxton  Order N= 1 SIGMA  =   0.20


--------------------------------------------------------------------------------------------------------


  energy-cutoff  :      450.00
  volume of cell :      611.73
      direct lattice vectors                 reciprocal lattice vectors
    11.915530884  0.000000000  0.000000000     0.083924083  0.000000000  0.000000000
     0.000000000  7.361269220  0.000000000     0.000000000  0.135846139  0.000000000
     0.000000000  0.000000000  6.974195440     0.000000000  0.000000000  0.143385715

  length of vectors
    11.915530884  7.361269220  6.974195440     0.083924083  0.135846139  0.143385715


 
 k-points in units of 2pi/SCALE and weight: Auto                                    
   0.00000000  0.00000000  0.00000000       0.005
   0.02077121  0.00000000  0.00000000       0.010
   0.04154242  0.00000000  0.00000000       0.005
   0.00000000  0.01921253  0.00000000       0.010
   0.02077121  0.01921253  0.00000000       0.020
   0.04154242  0.01921253  0.00000000       0.010
   0.00000000  0.03842505  0.00000000       0.010
   0.02077121  0.03842505  0.00000000       0.020
   0.04154242  0.03842505  0.00000000       0.010
   0.00000000  0.05763758  0.00000000       0.010
   0.02077121  0.05763758  0.00000000       0.020
   0.04154242  0.05763758  0.00000000       0.010
   0.00000000  0.00000000  0.02027884       0.010
   0.02077121  0.00000000  0.02027884       0.010
  -0.02077121  0.00000000  0.02027884       0.010
   0.04154242  0.00000000  0.02027884       0.010
   0.00000000  0.01921253  0.02027884       0.020
   0.02077121  0.01921253  0.02027884       0.020
  -0.02077121 -0.01921253  0.02027884       0.020
   0.04154242  0.01921253  0.02027884       0.020
   0.00000000  0.03842505  0.02027884       0.020
   0.02077121  0.03842505  0.02027884       0.020
  -0.02077121 -0.03842505  0.02027884       0.020
   0.04154242  0.03842505  0.02027884       0.020
   0.00000000  0.05763758  0.02027884       0.020
   0.02077121  0.05763758  0.02027884       0.020
  -0.02077121 -0.05763758  0.02027884       0.020
   0.04154242  0.05763758  0.02027884       0.020
   0.00000000  0.00000000  0.04055767       0.010
   0.02077121  0.00000000  0.04055767       0.010
  -0.02077121  0.00000000  0.04055767       0.010
   0.04154242  0.00000000  0.04055767       0.010
   0.00000000  0.01921253  0.04055767       0.020
   0.02077121  0.01921253  0.04055767       0.020
  -0.02077121 -0.01921253  0.04055767       0.020
   0.04154242  0.01921253  0.04055767       0.020
   0.00000000  0.03842505  0.04055767       0.020
   0.02077121  0.03842505  0.04055767       0.020
  -0.02077121 -0.03842505  0.04055767       0.020
   0.04154242  0.03842505  0.04055767       0.020
   0.00000000  0.05763758  0.04055767       0.020
   0.02077121  0.05763758  0.04055767       0.020
  -0.02077121 -0.05763758  0.04055767       0.020
   0.04154242  0.05763758  0.04055767       0.020
   0.00000000  0.00000000  0.06083651       0.010
   0.02077121  0.00000000  0.06083651       0.010
  -0.02077121  0.00000000  0.06083651       0.010
   0.04154242  0.00000000  0.06083651       0.010
   0.00000000  0.01921253  0.06083651       0.020
   0.02077121  0.01921253  0.06083651       0.020
  -0.02077121 -0.01921253  0.06083651       0.020
   0.04154242  0.01921253  0.06083651       0.020
   0.00000000  0.03842505  0.06083651       0.020
   0.02077121  0.03842505  0.06083651       0.020
  -0.02077121 -0.03842505  0.06083651       0.020
   0.04154242  0.03842505  0.06083651       0.020
   0.00000000  0.05763758  0.06083651       0.020
   0.02077121  0.05763758  0.06083651       0.020
  -0.02077121 -0.05763758  0.06083651       0.020
   0.04154242  0.05763758  0.06083651       0.020
 
 k-points in reciprocal lattice and weights: Auto                                    
   0.00000000  0.00000000  0.00000000       0.005
   0.25000000  0.00000000  0.00000000       0.010
   0.50000000  0.00000000  0.00000000       0.005
   0.00000000  0.14285714  0.00000000       0.010
   0.25000000  0.14285714  0.00000000       0.020
   0.50000000  0.14285714  0.00000000       0.010
   0.00000000  0.28571429  0.00000000       0.010
   0.25000000  0.28571429  0.00000000       0.020
   0.50000000  0.28571429  0.00000000       0.010
   0.00000000  0.42857143  0.00000000       0.010
   0.25000000  0.42857143  0.00000000       0.020
   0.50000000  0.42857143  0.00000000       0.010
   0.00000000  0.00000000  0.14285714       0.010
   0.25000000  0.00000000  0.14285714       0.010
  -0.25000000  0.00000000  0.14285714       0.010
   0.50000000  0.00000000  0.14285714       0.010
   0.00000000  0.14285714  0.14285714       0.020
   0.25000000  0.14285714  0.14285714       0.020
  -0.25000000 -0.14285714  0.14285714       0.020
   0.50000000  0.14285714  0.14285714       0.020
   0.00000000  0.28571429  0.14285714       0.020
   0.25000000  0.28571429  0.14285714       0.020
  -0.25000000 -0.28571429  0.14285714       0.020
   0.50000000  0.28571429  0.14285714       0.020
   0.00000000  0.42857143  0.14285714       0.020
   0.25000000  0.42857143  0.14285714       0.020
  -0.25000000 -0.42857143  0.14285714       0.020
   0.50000000  0.42857143  0.14285714       0.020
   0.00000000  0.00000000  0.28571429       0.010
   0.25000000  0.00000000  0.28571429       0.010
  -0.25000000  0.00000000  0.28571429       0.010
   0.50000000  0.00000000  0.28571429       0.010
   0.00000000  0.14285714  0.28571429       0.020
   0.25000000  0.14285714  0.28571429       0.020
  -0.25000000 -0.14285714  0.28571429       0.020
   0.50000000  0.14285714  0.28571429       0.020
   0.00000000  0.28571429  0.28571429       0.020
   0.25000000  0.28571429  0.28571429       0.020
  -0.25000000 -0.28571429  0.28571429       0.020
   0.50000000  0.28571429  0.28571429       0.020
   0.00000000  0.42857143  0.28571429       0.020
   0.25000000  0.42857143  0.28571429       0.020
  -0.25000000 -0.42857143  0.28571429       0.020
   0.50000000  0.42857143  0.28571429       0.020
   0.00000000  0.00000000  0.42857143       0.010
   0.25000000  0.00000000  0.42857143       0.010
  -0.25000000  0.00000000  0.42857143       0.010
   0.50000000  0.00000000  0.42857143       0.010
   0.00000000  0.14285714  0.42857143       0.020
   0.25000000  0.14285714  0.42857143       0.020
  -0.25000000 -0.14285714  0.42857143       0.020
   0.50000000  0.14285714  0.42857143       0.020
   0.00000000  0.28571429  0.42857143       0.020
   0.25000000  0.28571429  0.42857143       0.020
  -0.25000000 -0.28571429  0.42857143       0.020
   0.50000000  0.28571429  0.42857143       0.020
   0.00000000  0.42857143  0.42857143       0.020
   0.25000000  0.42857143  0.42857143       0.020
  -0.25000000 -0.42857143  0.42857143       0.020
   0.50000000  0.42857143  0.42857143       0.020
 
 position of ions in fractional coordinates (direct lattice) 
   0.24190000  0.25000000  0.17829999
   0.24190000  0.75000000  0.17829999
   0.49190000  0.25000000  0.32170001
   0.49190000  0.75000000  0.32170001
   0.74190003  0.25000000  0.17829999
   0.74190003  0.75000000  0.17829999
   0.99190003  0.25000000  0.32170001
   0.99190003  0.75000000  0.32170001
   0.00810000  0.00000000  0.67830002
   0.25810000  0.00000000  0.82169998
   0.50809997  0.00000000  0.67830002
   0.75809997  0.00000000  0.82169998
   0.00810000  0.50000000  0.67830002
   0.25810000  0.50000000  0.82169998
   0.75809997  0.50000000  0.82169998
   0.17670000  0.25000000  0.55330002
   0.17670000  0.75000000  0.55330002
   0.42670000  0.25000000  0.94669998
   0.42670000  0.75000000  0.94669998
   0.67670000  0.25000000  0.55330002
   0.67670000  0.75000000  0.55330002
   0.92670000  0.25000000  0.94669998
   0.92670000  0.75000000  0.94669998
   0.07330000  0.00000000  0.05330000
   0.32330000  0.00000000  0.44670001
   0.57330000  0.00000000  0.05330000
   0.82330000  0.00000000  0.44670001
   0.07330000  0.50000000  0.05330000
   0.32330000  0.50000000  0.44670001
   0.57330000  0.50000000  0.05330000
   0.82330000  0.50000000  0.44670001
   0.12525000  0.25000000  0.87830001
   0.12525000  0.75000000  0.87830001
   0.37525001  0.25000000  0.62169999
   0.37525001  0.75000000  0.62169999
   0.62524998  0.25000000  0.87830001
   0.62524998  0.75000000  0.87830001
   0.87524998  0.25000000  0.62169999
   0.87524998  0.75000000  0.62169999
   0.12475000  0.00000000  0.37830001
   0.37474999  0.00000000  0.12170000
   0.62475002  0.00000000  0.37830001
   0.87475002  0.00000000  0.12170000
   0.12475000  0.50000000  0.37830001
   0.37474999  0.50000000  0.12170000
   0.62475002  0.50000000  0.37830001
   0.87475002  0.50000000  0.12170000
   0.50809997  0.50000000  0.67830002
 
 position of ions in cartesian coordinates  (Angst):
   2.88236689  1.84031731  1.24349900
   2.88236689  5.52095192  1.24349900
   5.86124961  1.84031731  2.24359872
   5.86124961  5.52095192  2.24359872
   8.84013268  1.84031731  1.24349900
   8.84013268  5.52095192  1.24349900
  11.81901541  1.84031731  2.24359872
  11.81901541  5.52095192  2.24359872
   0.09651580  0.00000000  4.73059693
   3.07539856  0.00000000  5.73069623
   6.05428092  0.00000000  4.73059693
   9.03316364  0.00000000  5.73069623
   0.09651580  3.68063461  4.73059693
   3.07539856  3.68063461  5.73069623
   9.03316364  3.68063461  5.73069623
   2.10547426  1.84031731  3.85882250
   2.10547426  5.52095192  3.85882250
   5.08435698  1.84031731  6.60247066
   5.08435698  5.52095192  6.60247066
   8.06323970  1.84031731  3.85882250
   8.06323970  5.52095192  3.85882250
  11.04212242  1.84031731  6.60247066
  11.04212242  5.52095192  6.60247066
   0.87340838  0.00000000  0.37172462
   3.85229118  0.00000000  3.11537315
   6.83117390  0.00000000  0.37172462
   9.81005662  0.00000000  3.11537315
   0.87340838  3.68063461  0.37172462
   3.85229118  3.68063461  3.11537315
   6.83117390  3.68063461  0.37172462
   9.81005662  3.68063461  3.11537315
   1.49242021  1.84031731  6.12543593
   1.49242021  5.52095192  6.12543593
   4.47130311  1.84031731  4.33585723
   4.47130311  5.52095192  4.33585723
   7.45018547  1.84031731  6.12543593
   7.45018547  5.52095192  6.12543593
  10.42906819  1.84031731  4.33585723
  10.42906819  5.52095192  4.33585723
   1.48646251  0.00000000  2.63833821
   4.46534506  0.00000000  0.84875956
   7.44422813  0.00000000  2.63833821
  10.42311086  0.00000000  0.84875956
   1.48646251  3.68063461  2.63833821
   4.46534506  3.68063461  0.84875956
   7.44422813  3.68063461  2.63833821
  10.42311086  3.68063461  0.84875956
   6.05428092  3.68063461  4.73059693
 


--------------------------------------------------------------------------------------------------------


 k-point   1 :   0.0000 0.0000 0.0000  plane waves:   13249
 k-point   2 :   0.2500 0.0000 0.0000  plane waves:   13265
 k-point   3 :   0.5000 0.0000 0.0000  plane waves:   13254
 k-point   4 :   0.0000 0.1429 0.0000  plane waves:   13251
 k-point   5 :   0.2500 0.1429 0.0000  plane waves:   13258
 k-point   6 :   0.5000 0.1429 0.0000  plane waves:   13258
 k-point   7 :   0.0000 0.2857 0.0000  plane waves:   13252
 k-point   8 :   0.2500 0.2857 0.0000  plane waves:   13236
 k-point   9 :   0.5000 0.2857 0.0000  plane waves:   13220
 k-point  10 :   0.0000 0.4286 0.0000  plane waves:   13220
 k-point  11 :   0.2500 0.4286 0.0000  plane waves:   13226
 k-point  12 :   0.5000 0.4286 0.0000  plane waves:   13204
 k-point  13 :   0.0000 0.0000 0.1429  plane waves:   13236
 k-point  14 :   0.2500 0.0000 0.1429  plane waves:   13258
 k-point  15 :  -0.2500 0.0000 0.1429  plane waves:   13258
 k-point  16 :   0.5000 0.0000 0.1429  plane waves:   13292
 k-point  17 :   0.0000 0.1429 0.1429  plane waves:   13244
 k-point  18 :   0.2500 0.1429 0.1429  plane waves:   13273
 k-point  19 :  -0.2500-0.1429 0.1429  plane waves:   13273
 k-point  20 :   0.5000 0.1429 0.1429  plane waves:   13264
 k-point  21 :   0.0000 0.2857 0.1429  plane waves:   13252
 k-point  22 :   0.2500 0.2857 0.1429  plane waves:   13241
 k-point  23 :  -0.2500-0.2857 0.1429  plane waves:   13241
 k-point  24 :   0.5000 0.2857 0.1429  plane waves:   13256
 k-point  25 :   0.0000 0.4286 0.1429  plane waves:   13244
 k-point  26 :   0.2500 0.4286 0.1429  plane waves:   13241
 k-point  27 :  -0.2500-0.4286 0.1429  plane waves:   13241
 k-point  28 :   0.5000 0.4286 0.1429  plane waves:   13240
 k-point  29 :   0.0000 0.0000 0.2857  plane waves:   13276
 k-point  30 :   0.2500 0.0000 0.2857  plane waves:   13264
 k-point  31 :  -0.2500 0.0000 0.2857  plane waves:   13264
 k-point  32 :   0.5000 0.0000 0.2857  plane waves:   13280
 k-point  33 :   0.0000 0.1429 0.2857  plane waves:   13269
 k-point  34 :   0.2500 0.1429 0.2857  plane waves:   13261
 k-point  35 :  -0.2500-0.1429 0.2857  plane waves:   13261
 k-point  36 :   0.5000 0.1429 0.2857  plane waves:   13248
 k-point  37 :   0.0000 0.2857 0.2857  plane waves:   13268
 k-point  38 :   0.2500 0.2857 0.2857  plane waves:   13260
 k-point  39 :  -0.2500-0.2857 0.2857  plane waves:   13260
 k-point  40 :   0.5000 0.2857 0.2857  plane waves:   13256
 k-point  41 :   0.0000 0.4286 0.2857  plane waves:   13288
 k-point  42 :   0.2500 0.4286 0.2857  plane waves:   13260
 k-point  43 :  -0.2500-0.4286 0.2857  plane waves:   13260
 k-point  44 :   0.5000 0.4286 0.2857  plane waves:   13272
 k-point  45 :   0.0000 0.0000 0.4286  plane waves:   13314
 k-point  46 :   0.2500 0.0000 0.4286  plane waves:   13262
 k-point  47 :  -0.2500 0.0000 0.4286  plane waves:   13262
 k-point  48 :   0.5000 0.0000 0.4286  plane waves:   13230
 k-point  49 :   0.0000 0.1429 0.4286  plane waves:   13275
 k-point  50 :   0.2500 0.1429 0.4286  plane waves:   13256
 k-point  51 :  -0.2500-0.1429 0.4286  plane waves:   13256
 k-point  52 :   0.5000 0.1429 0.4286  plane waves:   13258
 k-point  53 :   0.0000 0.2857 0.4286  plane waves:   13271
 k-point  54 :   0.2500 0.2857 0.4286  plane waves:   13273
 k-point  55 :  -0.2500-0.2857 0.4286  plane waves:   13273
 k-point  56 :   0.5000 0.2857 0.4286  plane waves:   13250
 k-point  57 :   0.0000 0.4286 0.4286  plane waves:   13306
 k-point  58 :   0.2500 0.4286 0.4286  plane waves:   13274
 k-point  59 :  -0.2500-0.4286 0.4286  plane waves:   13274
 k-point  60 :   0.5000 0.4286 0.4286  plane waves:   13288

 maximum and minimum number of plane-waves per node :      2256     2137

 maximum number of plane-waves:     13314
 maximum index in each direction: 
   IXMAX=   20   IYMAX=   13   IZMAX=   12
   IXMIN=  -21   IYMIN=  -13   IZMIN=  -12


 parallel 3D FFT for wavefunctions:
    minimum data exchange during FFTs selected (reduces bandwidth)
 parallel 3D FFT for charge:
    minimum data exchange during FFTs selected (reduces bandwidth)


 total amount of memory used by VASP MPI-rank0   531061. kBytes
=======================================================================

   base      :      30000. kBytes
   nonl-proj :      78710. kBytes
   fftplans  :       3576. kBytes
   grid      :      10028. kBytes
   one-center:        248. kBytes
   wavefun   :     408499. kBytes
 
     INWAV:  cpu time    0.0000: real time    0.0009
 Broyden mixing: mesh for mixing (old mesh)
   NGX = 41   NGY = 25   NGZ = 25
  (NGX  =168   NGY  =108   NGZ  = 96)
  gives a total of  25625 points

 initial charge density was supplied:
 charge density of overlapping atoms calculated
 number of electron     337.0000000 magnetization     160.0000000
 keeping initial charge density in first step


--------------------------------------------------------------------------------------------------------


 Maximum index for augmentation-charges          830 (set IRDMAX)


--------------------------------------------------------------------------------------------------------


 First call to EWALD:  gamma=   0.209
 Maximum number of real-space cells 2x 3x 3
 Maximum number of reciprocal cells 4x 2x 2

    FEWALD:  cpu time    0.0020: real time    0.0169


--------------------------------------- Iteration      1(   1)  ---------------------------------------


    POTLOK:  cpu time    0.1530: real time    0.4919
    SETDIJ:  cpu time    0.0310: real time    0.1670
     EDDAV:  cpu time  275.9640: real time  278.4233
       DOS:  cpu time    0.0380: real time    0.0846
    --------------------------------------------
      LOOP:  cpu time  276.1860: real time  279.1669

 eigenvalue-minimisations  : 86400
 total energy-change (2. order) : 0.2821715E+04  (-0.1089455E+05)
 number of electron     337.0000000 magnetization     160.0000000
 augmentation part      337.0000000 magnetization     160.0000000

 Free energy of the ion-electron system (eV)
  ---------------------------------------------------
  alpha Z        PSCENC =      1570.01357844
  Ewald energy   TEWEN  =    -22219.58552366
  -Hartree energ DENC   =     -6933.30356745
  -exchange      EXHF   =         0.00000000
  -V(xc)+E(xc)   XCENC  =       317.40055452
  PAW double counting   =     23377.83946347   -23998.34197029
  entropy T*S    EENTRO =         0.00440926
  eigenvalues    EBANDS =      4939.46132430
  atomic energy  EATOM  =     25768.22672671
  Solvation  Ediel_sol  =         0.00000000
  ---------------------------------------------------
  free energy    TOTEN  =      2821.71499530 eV

  energy without entropy =     2821.71058604  energy(sigma->0) =     2821.71352555


--------------------------------------------------------------------------------------------------------




--------------------------------------- Iteration      1(   2)  ---------------------------------------


     EDDAV:  cpu time  275.8071: real time  277.0924
       DOS:  cpu time    0.0450: real time    0.0455
    --------------------------------------------
      LOOP:  cpu time  275.8521: real time  277.1378

 eigenvalue-minimisations  : 86400
 total energy-change (2. order) :-0.2644700E+04  (-0.2355029E+04)
 number of electron     337.0000000 magnetization     160.0000000
 augmentation part      337.0000000 magnetization     160.0000000

 Free energy of the ion-electron system (eV)
  ---------------------------------------------------
  alpha Z        PSCENC =      1570.01357844
  Ewald energy   TEWEN  =    -22219.58552366
  -Hartree energ DENC   =     -6933.30356745
  -exchange      EXHF   =         0.00000000
  -V(xc)+E(xc)   XCENC  =       317.40055452
  PAW double counting   =     23377.83946347   -23998.34197029
  entropy T*S    EENTRO =         0.00215646
  eigenvalues    EBANDS =      2294.76375980
  atomic energy  EATOM  =     25768.22672671
  Solvation  Ediel_sol  =         0.00000000
  ---------------------------------------------------
  free energy    TOTEN  =       177.01517800 eV

  energy without entropy =      177.01302154  energy(sigma->0) =      177.01445918


--------------------------------------------------------------------------------------------------------




--------------------------------------- Iteration      1(   3)  ---------------------------------------


     EDDAV:  cpu time  276.1890: real time  277.1199
       DOS:  cpu time    0.0480: real time    0.0480
    --------------------------------------------
      LOOP:  cpu time  276.2370: real time  277.1679

 eigenvalue-minimisations  : 86496
 total energy-change (2. order) :-0.4441779E+03  (-0.3670324E+03)
 number of electron     337.0000000 magnetization     160.0000000
 augmentation part      337.0000000 magnetization     160.0000000

 Free energy of the ion-electron system (eV)
  ---------------------------------------------------
  alpha Z        PSCENC =      1570.01357844
  Ewald energy   TEWEN  =    -22219.58552366
  -Hartree energ DENC   =     -6933.30356745
  -exchange      EXHF   =         0.00000000
  -V(xc)+E(xc)   XCENC  =       317.40055452
  PAW double counting   =     23377.83946347   -23998.34197029
  entropy T*S    EENTRO =        -0.01170142
  eigenvalues    EBANDS =      1850.59970873
  atomic energy  EATOM  =     25768.22672671
  Solvation  Ediel_sol  =         0.00000000
  ---------------------------------------------------
  free energy    TOTEN  =      -267.16273095 eV

  energy without entropy =     -267.15102954  energy(sigma->0) =     -267.15883048


--------------------------------------------------------------------------------------------------------




--------------------------------------- Iteration      1(   4)  ---------------------------------------


     EDDAV:  cpu time  324.0597: real time  325.1857
       DOS:  cpu time    0.0530: real time    0.0534
    --------------------------------------------
      LOOP:  cpu time  324.1127: real time  325.2391

 eigenvalue-minimisations  :106168
 total energy-change (2. order) :-0.3161577E+02  (-0.3035173E+02)
 number of electron     337.0000000 magnetization     160.0000000
 augmentation part      337.0000000 magnetization     160.0000000

 Free energy of the ion-electron system (eV)
  ---------------------------------------------------
  alpha Z        PSCENC =      1570.01357844
  Ewald energy   TEWEN  =    -22219.58552366
  -Hartree energ DENC   =     -6933.30356745
  -exchange      EXHF   =         0.00000000
  -V(xc)+E(xc)   XCENC  =       317.40055452
  PAW double counting   =     23377.83946347   -23998.34197029
  entropy T*S    EENTRO =         0.00260633
  eigenvalues    EBANDS =      1818.96963110
  atomic energy  EATOM  =     25768.22672671
  Solvation  Ediel_sol  =         0.00000000
  ---------------------------------------------------
  free energy    TOTEN  =      -298.77850083 eV

  energy without entropy =     -298.78110716  energy(sigma->0) =     -298.77936961


--------------------------------------------------------------------------------------------------------




--------------------------------------- Iteration      1(   5)  ---------------------------------------


     EDDAV:  cpu time  318.7425: real time  319.8144
       DOS:  cpu time    0.0530: real time    0.0539
    CHARGE:  cpu time    4.3643: real time    4.4575
    MIXING:  cpu time    0.0070: real time    0.0781
    --------------------------------------------
      LOOP:  cpu time  323.1669: real time  324.4039

 eigenvalue-minimisations  :104056
 total energy-change (2. order) :-0.8084220E+00  (-0.8067141E+00)
 number of electron     337.0000090 magnetization     131.4362974
 augmentation part      118.8306687 magnetization     110.2331002

 Broyden mixing:
  rms(total) = 0.10365E+02    rms(broyden)= 0.10365E+02
  rms(prec ) = 0.11144E+02
  weight for this iteration     100.00

 Free energy of the ion-electron system (eV)
  ---------------------------------------------------
  alpha Z        PSCENC =      1570.01357844
  Ewald energy   TEWEN  =    -22219.58552366
  -Hartree energ DENC   =     -6933.30356745
  -exchange      EXHF   =         0.00000000
  -V(xc)+E(xc)   XCENC  =       317.40055452
  PAW double counting   =     23377.83946347   -23998.34197029
  entropy T*S    EENTRO =         0.00320246
  eigenvalues    EBANDS =      1818.16061299
  atomic energy  EATOM  =     25768.22672671
  Solvation  Ediel_sol  =         0.00000000
  ---------------------------------------------------
  free energy    TOTEN  =      -299.58692282 eV

  energy without entropy =     -299.59012528  energy(sigma->0) =     -299.58799030


--------------------------------------------------------------------------------------------------------




--------------------------------------- Iteration      1(   6)  ---------------------------------------


    POTLOK:  cpu time    0.1380: real time    0.1449
    SETDIJ:  cpu time    0.0260: real time    0.0263
     EDDAV:  cpu time  335.0231: real time  336.1167
       DOS:  cpu time    0.0530: real time    0.0535
    CHARGE:  cpu time    4.1064: real time    4.1217
    MIXING:  cpu time    0.0050: real time    0.0852
    --------------------------------------------
      LOOP:  cpu time  339.3514: real time  340.5483

 eigenvalue-minimisations  :109464
 total energy-change (2. order) :-0.7504220E+02  (-0.2269029E+02)
 number of electron     337.0000131 magnetization     120.3229234
 augmentation part      158.9192759 magnetization      96.1945438

 Broyden mixing:
  rms(total) = 0.11365E+02    rms(broyden)= 0.11365E+02
  rms(prec ) = 0.12855E+02
  weight for this iteration     100.00

 eigenvalues of (default mixing * dielectric matrix)
  average eigenvalue GAMMA=   0.6218
  0.6218

 Free energy of the ion-electron system (eV)
  ---------------------------------------------------
  alpha Z        PSCENC =      1570.01357844
  Ewald energy   TEWEN  =    -22219.58552366
  -Hartree energ DENC   =     -6004.09573405
  -exchange      EXHF   =         0.00000000
  -V(xc)+E(xc)   XCENC  =       235.04504242
  PAW double counting   =     25788.19343497   -26264.31349022
  entropy T*S    EENTRO =         0.00000344
  eigenvalues    EBANDS =       751.88683838
  atomic energy  EATOM  =     25768.22672671
  Solvation  Ediel_sol  =         0.00000000
  ---------------------------------------------------
  free energy    TOTEN  =      -374.62912357 eV

  energy without entropy =     -374.62912701  energy(sigma->0) =     -374.62912472


--------------------------------------------------------------------------------------------------------




--------------------------------------- Iteration      1(   7)  ---------------------------------------


    POTLOK:  cpu time    0.1380: real time    0.1455
    SETDIJ:  cpu time    0.0260: real time    0.0263
     EDDAV:  cpu time  326.3624: real time  327.4672
       DOS:  cpu time    0.0530: real time    0.0528
    CHARGE:  cpu time    4.0064: real time    4.0225
    MIXING:  cpu time    0.0040: real time    0.0404
    --------------------------------------------
      LOOP:  cpu time  330.5897: real time  331.7546

 eigenvalue-minimisations  :106056
 total energy-change (2. order) : 0.6624252E+02  (-0.1875239E+02)
 number of electron     337.0000114 magnetization     106.2224839
 augmentation part      150.2338541 magnetization      87.0902991

 Broyden mixing:
  rms(total) = 0.72521E+01    rms(broyden)= 0.72519E+01
  rms(prec ) = 0.93489E+01
  weight for this iteration     100.00

 eigenvalues of (default mixing * dielectric matrix)
  average eigenvalue GAMMA=   0.6133
  0.9176  0.3090

 Free energy of the ion-electron system (eV)
  ---------------------------------------------------
  alpha Z        PSCENC =      1570.01357844
  Ewald energy   TEWEN  =    -22219.58552366
  -Hartree energ DENC   =     -6394.91064526
  -exchange      EXHF   =         0.00000000
  -V(xc)+E(xc)   XCENC  =       250.46793263
  PAW double counting   =     27463.51911472   -28078.17862797
  entropy T*S    EENTRO =         0.05148262
  eigenvalues    EBANDS =      1332.00935945
  atomic energy  EATOM  =     25768.22672671
  Solvation  Ediel_sol  =         0.00000000
  ---------------------------------------------------
  free energy    TOTEN  =      -308.38660232 eV

  energy without entropy =     -308.43808494  energy(sigma->0) =     -308.40376319


--------------------------------------------------------------------------------------------------------




[...]
   43       -0.016  -0.112   0.003  -0.126
   44       -0.016  -0.113   0.003  -0.126
   45       -0.017  -0.112   0.003  -0.126
   46       -0.014  -0.104   0.000  -0.117
   47       -0.016  -0.113   0.002  -0.127
   48        0.009  -0.003   2.184   2.190
--------------------------------------------------
tot         -0.274  -2.256  48.159  45.629
 
    CHARGE:  cpu time    4.0024: real time    4.0084
    FORLOC:  cpu time    0.0200: real time    0.0294
    FORNL :  cpu time   97.5812: real time   97.9221
    STRESS:  cpu time  169.6672: real time  170.2079
    FORCOR:  cpu time    0.1530: real time    0.1810
    FORHAR:  cpu time    0.0330: real time    0.0419
    MIXING:  cpu time    0.0080: real time    0.0092
    OFIELD:  cpu time    0.0010: real time    0.0046

  FORCE on cell =-STRESS in cart. coord.  units (eV):
  Direction    XX          YY          ZZ          XY          YZ          ZX
  --------------------------------------------------------------------------------------
  Alpha Z  1570.01358  1570.01358  1570.01358
  Ewald   -7642.56000 -7058.63395 -7518.49291     0.00000    -0.00000     0.12764
  Hartree  2089.63991  2364.96096  1992.01638    -0.00000    -0.00000    -1.05993
  E(xc)   -1659.81335 -1662.24960 -1659.87510     0.00000     0.00000     0.13440
  Local    -350.42242 -1163.85056  -345.06723     0.00000     0.00000     1.98485
  n-local  -240.00436  -217.78465  -221.91735    -0.09634    -0.83567     0.55722
  augment  3340.64488  3322.07803  3312.45033     0.00000    -0.00000    -0.83096
  Kinetic  2905.72143  2871.37712  2883.99962    -0.03900     0.26347    -1.03162
  Fock        0.00000     0.00000     0.00000     0.00000     0.00000     0.00000
  -------------------------------------------------------------------------------------
  Total      13.21967    25.91092    13.12731     0.00000     0.00000    -0.11841
  in kB      34.62350    67.86302    34.38160     0.00000     0.00000    -0.31012
  external pressure =       45.62 kB  Pullay stress =        0.00 kB


 VOLUME and BASIS-vectors are now :
 -----------------------------------------------------------------------------
  energy-cutoff  :      450.00
  volume of cell :      611.73
      direct lattice vectors                 reciprocal lattice vectors
    11.915530884  0.000000000  0.000000000     0.083924083  0.000000000  0.000000000
     0.000000000  7.361269220  0.000000000     0.000000000  0.135846139  0.000000000
     0.000000000  0.000000000  6.974195440     0.000000000  0.000000000  0.143385715

  length of vectors
    11.915530884  7.361269220  6.974195440     0.083924083  0.135846139  0.143385715


 FORCES acting on ions
    electron-ion (+dipol)            ewald-force                    non-local-force                 convergence-correction
 -----------------------------------------------------------------------------------------------
   0.106E+02 0.105E+01 0.364E+02   -.107E+02 -.103E+01 -.363E+02   -.585E+00 -.856E-02 0.137E+00   -.571E-02 -.539E-03 -.189E-02
   0.106E+02 -.105E+01 0.364E+02   -.107E+02 0.103E+01 -.363E+02   -.585E+00 0.856E-02 0.137E+00   -.571E-02 0.539E-03 -.189E-02
   0.701E+01 0.497E+01 -.314E+02   -.713E+01 -.507E+01 0.312E+02   -.605E+00 0.771E-01 -.304E-01   0.683E-04 -.255E-02 -.174E-02
   0.701E+01 -.497E+01 -.314E+02   -.713E+01 0.507E+01 0.312E+02   -.605E+00 -.771E-01 -.304E-01   0.683E-04 0.255E-02 -.174E-02
   0.148E+01 0.128E+01 0.364E+02   -.159E+01 -.130E+01 -.363E+02   -.625E+00 0.260E-01 0.136E+00   0.503E-02 0.462E-03 0.147E-03
   0.148E+01 -.128E+01 0.364E+02   -.159E+01 0.130E+01 -.363E+02   -.625E+00 -.260E-01 0.136E+00   0.503E-02 -.462E-03 0.147E-03
   0.579E+01 0.282E+00 -.363E+02   -.590E+01 -.283E+00 0.361E+02   -.607E+00 -.499E-02 -.124E+00   0.956E-03 0.148E-02 -.816E-03
   0.579E+01 -.282E+00 -.363E+02   -.590E+01 0.283E+00 0.361E+02   -.607E+00 0.499E-02 -.124E+00   0.956E-03 -.148E-02 -.816E-03
   -.616E+01 0.743E-13 0.364E+02   0.628E+01 -.287E-13 -.363E+02   0.602E+00 0.000E+00 0.129E+00   0.984E-03 0.141E-13 -.131E-02
   -.147E+01 0.132E-12 -.371E+02   0.153E+01 0.349E-14 0.370E+02   0.647E+00 0.000E+00 -.156E+00   -.268E-02 0.534E-13 0.752E-03
   -.616E+01 0.338E-13 0.364E+02   0.628E+01 -.490E-13 -.363E+02   0.647E+00 0.000E+00 0.129E+00   -.144E-03 0.304E-14 0.110E-02
   -.109E+02 -.801E-13 -.371E+02   0.110E+02 -.150E-13 0.370E+02   0.594E+00 0.000E+00 -.142E+00   0.202E-02 0.466E-13 -.717E-03
   -.616E+01 0.357E-12 0.365E+02   0.628E+01 -.215E-13 -.363E+02   0.617E+00 0.000E+00 0.133E+00   0.538E-04 -.350E-14 -.128E-02
   0.400E+01 0.122E-11 -.388E+02   -.381E+01 0.649E-14 0.386E+02   0.695E+00 0.000E+00 -.175E+00   -.705E-02 0.473E-13 0.231E-02
   -.162E+02 0.149E-11 -.388E+02   0.164E+02 -.137E-13 0.386E+02   0.569E+00 0.000E+00 -.156E+00   0.574E-02 0.395E-13 -.229E-03
   0.801E+02 0.152E+01 -.403E+02   -.798E+02 -.151E+01 0.411E+02   -.286E-01 -.120E-01 -.306E+00   -.611E-02 -.599E-03 0.262E-03
   0.801E+02 -.152E+01 -.403E+02   -.798E+02 0.151E+01 0.411E+02   -.286E-01 0.120E-01 -.306E+00   -.611E-02 0.599E-03 0.262E-03
   0.810E+02 0.976E+01 0.317E+02   -.806E+02 -.977E+01 -.326E+02   -.766E-01 0.306E-01 0.292E+00   -.637E-02 -.540E-02 0.143E-02
   0.810E+02 -.976E+01 0.317E+02   -.806E+02 0.977E+01 -.326E+02   -.766E-01 -.306E-01 0.292E+00   -.637E-02 0.540E-02 0.143E-02
   0.600E+02 0.871E+01 -.368E+02   -.596E+02 -.876E+01 0.376E+02   -.160E+00 0.451E-01 -.297E+00   0.919E-02 -.346E-02 0.740E-03
   0.600E+02 -.871E+01 -.368E+02   -.596E+02 0.876E+01 0.376E+02   -.160E+00 -.451E-01 -.297E+00   0.919E-02 0.346E-02 0.740E-03
   0.707E+02 0.584E+00 0.405E+02   -.704E+02 -.580E+00 -.414E+02   -.579E-01 -.692E-02 0.303E+00   0.316E-02 0.218E-02 0.320E-02
   0.707E+02 -.584E+00 0.405E+02   -.704E+02 0.580E+00 -.414E+02   -.579E-01 0.692E-02 0.303E+00   0.316E-02 -.218E-02 0.320E-02
   -.717E+02 0.133E-12 -.412E+02   0.713E+02 0.516E-13 0.421E+02   0.839E-01 0.000E+00 -.306E+00   -.540E-04 0.198E-12 0.343E-02
   -.671E+02 0.977E-14 0.429E+02   0.667E+02 0.411E-13 -.438E+02   0.140E+00 0.000E+00 0.328E+00   -.617E-02 0.111E-12 0.260E-02
   -.763E+02 -.151E-12 -.432E+02   0.760E+02 0.366E-13 0.440E+02   0.982E-01 0.000E+00 -.317E+00   0.166E-02 0.179E-12 -.289E-02
   -.787E+02 0.153E-12 0.417E+02   0.784E+02 0.255E-13 -.426E+02   0.952E-02 0.000E+00 0.324E+00   0.492E-02 0.122E-12 0.146E-04
   -.712E+02 0.119E-11 -.414E+02   0.708E+02 0.519E-13 0.422E+02   0.772E-01 0.000E+00 -.294E+00   -.206E-02 0.190E-12 0.279E-02
   -.568E+02 -.176E-11 0.498E+02   0.565E+02 0.269E-13 -.506E+02   0.163E+00 0.000E+00 0.348E+00   -.120E-01 0.111E-12 -.218E-02
   -.803E+02 0.232E-11 -.531E+02   0.799E+02 0.400E-13 0.538E+02   0.347E-01 0.000E+00 -.244E+00   0.443E-02 0.179E-12 0.295E-02
   -.817E+02 -.499E-11 0.428E+02   0.813E+02 0.123E-13 -.436E+02   0.968E-01 0.000E+00 0.280E+00   0.798E-02 0.110E-12 -.128E-03
   -.323E+02 0.329E+00 0.148E+02   0.326E+02 -.334E+00 -.145E+02   -.748E+00 -.610E-03 -.736E+00   -.111E-03 0.510E-03 0.812E-03
   -.323E+02 -.329E+00 0.148E+02   0.326E+02 0.334E+00 -.145E+02   -.748E+00 0.610E-03 -.736E+00   -.111E-03 -.510E-03 0.812E-03
   -.275E+02 0.595E+01 -.137E+02   0.277E+02 -.596E+01 0.134E+02   -.548E+00 0.216E+00 0.755E+00   -.384E-02 -.366E-02 0.126E-02
   -.275E+02 -.595E+01 -.137E+02   0.277E+02 0.596E+01 0.134E+02   -.548E+00 -.216E+00 0.755E+00   -.384E-02 0.366E-02 0.126E-02
   -.385E+02 0.434E+01 0.118E+02   0.389E+02 -.436E+01 -.115E+02   -.854E+00 0.105E+00 -.819E+00   0.293E-02 -.199E-02 0.180E-03
   -.385E+02 -.434E+01 0.118E+02   0.389E+02 0.436E+01 -.115E+02   -.854E+00 -.105E+00 -.819E+00   0.293E-02 0.199E-02 0.180E-03
   -.361E+02 0.447E+00 -.149E+02   0.364E+02 -.442E+00 0.147E+02   -.761E+00 0.784E-03 0.734E+00   0.914E-03 0.114E-02 -.116E-02
   -.361E+02 -.447E+00 -.149E+02   0.364E+02 0.442E+00 0.147E+02   -.761E+00 -.784E-03 0.734E+00   0.914E-03 -.114E-02 -.116E-02
   0.353E+02 0.333E-13 0.152E+02   -.357E+02 -.197E-13 -.149E+02   0.759E+00 0.000E+00 -.730E+00   -.232E-02 0.532E-14 -.102E-02
   0.359E+02 -.565E-13 -.154E+02   -.362E+02 0.871E-14 0.151E+02   0.753E+00 0.000E+00 0.725E+00   -.245E-02 -.718E-14 -.171E-02
   0.320E+02 0.362E-13 0.161E+02   -.324E+02 0.142E-13 -.158E+02   0.752E+00 0.000E+00 -.737E+00   0.172E-02 0.431E-14 0.112E-02
   0.325E+02 -.124E-12 -.151E+02   -.329E+02 -.317E-13 0.148E+02   0.747E+00 0.000E+00 0.732E+00   0.236E-02 -.506E-14 0.712E-03
   0.358E+02 0.584E-13 0.154E+02   -.361E+02 -.190E-13 -.151E+02   0.761E+00 0.000E+00 -.734E+00   -.378E-02 -.636E-14 -.119E-02
   0.373E+02 -.938E-12 -.164E+02   -.376E+02 0.102E-13 0.161E+02   0.749E+00 0.000E+00 0.744E+00   -.274E-02 -.963E-14 -.119E-02
   0.285E+02 0.159E-11 0.210E+02   -.287E+02 0.137E-13 -.206E+02   0.564E+00 0.000E+00 -.509E+00   0.426E-02 -.162E-14 -.157E-02
   0.321E+02 0.711E-12 -.152E+02   -.325E+02 -.308E-13 0.149E+02   0.752E+00 0.000E+00 0.738E+00   0.306E-02 -.873E-14 0.118E-02
   -.706E+01 -.228E-11 0.417E+02   0.718E+01 0.115E-14 -.415E+02   0.494E+00 0.000E+00 -.123E+00   0.104E-02 -.899E-14 0.160E-02
 -----------------------------------------------------------------------------------------------
   -.918E-01 0.462E-10 -.853E-01   -.250E-12 -.755E-13 -.128E-12   0.930E-01 0.000E+00 0.759E-01   -.103E-02 0.271E-11 0.100E-01
 
 
 POSITION                                       TOTAL-FORCE (eV/Angst)
 -----------------------------------------------------------------------------------
      2.88237      1.84032      1.24350        -0.739485      0.010587      0.299151
      2.88237      5.52095      1.24350        -0.739485     -0.010587      0.299151
      5.86125      1.84032      2.24360        -0.723071     -0.024460     -0.274715
      5.86125      5.52095      2.24360        -0.723071      0.024460     -0.274715
      8.84013      1.84032      1.24350        -0.723858     -0.001707      0.296128
      8.84013      5.52095      1.24350        -0.723858      0.001707      0.296128
     11.81902      1.84032      2.24360        -0.721248     -0.003895     -0.306558
     11.81902      5.52095      2.24360        -0.721248      0.003895     -0.306558
      0.09652      0.00000      4.73060         0.721307      0.000000      0.307003
      3.07540      0.00000      5.73070         0.709700      0.000000     -0.293467
      6.05428      0.00000      4.73060         0.769778      0.000000      0.276358
      9.03316      0.00000      5.73070         0.746388      0.000000     -0.294166
      0.09652      3.68063      4.73060         0.733401      0.000000      0.312007
      3.07540      3.68063      5.73070         0.879451      0.000000     -0.348805
      9.03316      3.68063      5.73070         0.691132      0.000000     -0.329641
      2.10547      1.84032      3.85882         0.279125     -0.001858      0.549088
      2.10547      5.52095      3.85882         0.279125      0.001858      0.549088
      5.08436      1.84032      6.60247         0.242967      0.018114     -0.566124
      5.08436      5.52095      6.60247         0.242967     -0.018114     -0.566124
      8.06324      1.84032      3.85882         0.214710     -0.004577      0.526143
      8.06324      5.52095      3.85882         0.214710      0.004577      0.526143
     11.04212      1.84032      6.60247         0.268665     -0.001169     -0.549268
     11.04212      5.52095      6.60247         0.268665      0.001169     -0.549268
      0.87341      0.00000      0.37172        -0.259975      0.000000      0.552134
      3.85229      0.00000      3.11537        -0.264792      0.000000     -0.560234
      6.83117      0.00000      0.37172        -0.215936      0.000000      0.547450
      9.81006      0.00000      3.11537        -0.274603      0.000000     -0.541983
      0.87341      3.68063      0.37172        -0.265733      0.000000      0.552814
      3.85229      3.68063      3.11537        -0.205404      0.000000     -0.522535
      6.83117      3.68063      0.37172        -0.320005      0.000000      0.501360
      9.81006      3.68063      3.11537        -0.277510      0.000000     -0.553901
      1.49242      1.84032      6.12544        -0.406685     -0.004667     -0.453856
      1.49242      5.52095      6.12544        -0.406685      0.004667     -0.453856
      4.47130      1.84032      4.33586        -0.272033      0.197544      0.524045
      4.47130      5.52095      4.33586        -0.272033     -0.197544      0.524045
      7.45019      1.84032      6.12544        -0.502783      0.077430     -0.510176
      7.45019      5.52095      6.12544        -0.502783     -0.077430     -0.510176
     10.42907      1.84032      4.33586        -0.415302      0.006681      0.467072
     10.42907      5.52095      4.33586        -0.415302     -0.006681      0.467072
      1.48646      0.00000      2.63834         0.391362      0.000000     -0.462900
      4.46535      0.00000      0.84876         0.447150      0.000000      0.424746
      7.44423      0.00000      2.63834         0.403255      0.000000     -0.458653
     10.42311      0.00000      0.84876         0.414396      0.000000      0.457161
      1.48646      3.68063      2.63834         0.408548      0.000000     -0.456110
      4.46535      3.68063      0.84876         0.402571      0.000000      0.455841
      7.44423      3.68063      2.63834         0.351075      0.000000     -0.124320
     10.42311      3.68063      0.84876         0.404818      0.000000      0.458527
      6.05428      3.68063      4.73060         0.607620      0.000000      0.099457
 -----------------------------------------------------------------------------------
    total drift:                                0.000194      0.000000      0.000597


--------------------------------------------------------------------------------------------------------



  FREE ENERGIE OF THE ION-ELECTRON SYSTEM (eV)
  ---------------------------------------------------
  free  energy   TOTEN  =      -312.92771126 eV

  energy  without entropy=     -312.97274715  energy(sigma->0) =     -312.94272323
 


--------------------------------------------------------------------------------------------------------


    POTLOK:  cpu time    0.1670: real time    0.1942


--------------------------------------------------------------------------------------------------------


     LOOP+:  cpu time13347.6788: real time13401.4488
    4ORBIT:  cpu time    0.0000: real time    0.0000
 


 total charge     
 
# of ion       s       p       d       tot
------------------------------------------
    1        0.267   0.311   5.088   5.667
    2        0.267   0.311   5.088   5.667
    3        0.267   0.311   5.087   5.665
    4        0.267   0.311   5.087   5.665
    5        0.267   0.311   5.089   5.667
    6        0.267   0.311   5.089   5.667
    7        0.267   0.311   5.089   5.667
    8        0.267   0.311   5.089   5.667
    9        0.267   0.311   5.089   5.667
   10        0.267   0.311   5.089   5.667
   11        0.268   0.311   5.089   5.668
   12        0.267   0.311   5.088   5.666
   13        0.267   0.311   5.088   5.666
   14        0.266   0.311   5.087   5.664
   15        0.266   0.311   5.089   5.666
   16        0.465   0.565   8.453   9.484
   17        0.465   0.565   8.453   9.484
   18        0.464   0.561   8.454   9.480
   19        0.464   0.561   8.454   9.480
   20        0.464   0.563   8.453   9.480
   21        0.464   0.563   8.453   9.480
   22        0.465   0.565   8.454   9.484
   23        0.465   0.565   8.454   9.484
   24        0.465   0.565   8.454   9.484
   25        0.465   0.563   8.455   9.484
   26        0.465   0.565   8.454   9.484
   27        0.465   0.564   8.455   9.484
   28        0.465   0.565   8.454   9.484
   29        0.464   0.563   8.453   9.480
   30        0.465   0.562   8.453   9.479
   31        0.466   0.566   8.453   9.484
   32        1.107   1.380   0.144   2.631
   33        1.107   1.380   0.144   2.631
   34        1.106   1.368   0.144   2.619
   35        1.106   1.368   0.144   2.619
   36        1.107   1.372   0.144   2.624
   37        1.107   1.372   0.144   2.624
   38        1.107   1.380   0.144   2.631
   39        1.107   1.380   0.144   2.631
   40        1.107   1.380   0.144   2.631
   41        1.108   1.379   0.144   2.631
   42        1.107   1.379   0.144   2.630
   43        1.107   1.379   0.144   2.631
   44        1.107   1.379   0.144   2.631
   45        1.108   1.380   0.144   2.631
   46        1.107   1.368   0.145   2.620
   47        1.107   1.379   0.144   2.631
   48        0.338   0.402   6.289   7.028
--------------------------------------------------
tot         29.494  36.114 220.180 285.788
 


 magnetization (x)
 
# of ion       s       p       d       tot
------------------------------------------
    1        0.018   0.011   2.910   2.938
    2        0.018   0.011   2.910   2.938
    3        0.018   0.012   2.915   2.945
    4        0.018   0.012   2.915   2.945
    5        0.017   0.010   2.904   2.931
    6        0.017   0.010   2.904   2.931
    7        0.017   0.010   2.906   2.933
    8        0.017   0.010   2.906   2.933
    9        0.017   0.010   2.910   2.937
   10        0.018   0.010   2.908   2.936
   11        0.017   0.011   2.893   2.921
   12        0.018   0.011   2.910   2.938
   13        0.017   0.010   2.913   2.941
   14        0.018   0.011   2.907   2.936
   15        0.018   0.011   2.898   2.926
   16       -0.019  -0.042   0.152   0.091
   17       -0.019  -0.042   0.152   0.091
   18       -0.018  -0.040   0.135   0.076
   19       -0.018  -0.040   0.135   0.076
   20       -0.018  -0.040   0.148   0.090
   21       -0.018  -0.040   0.148   0.090
   22       -0.019  -0.042   0.150   0.089
   23       -0.019  -0.042   0.150   0.089
   24       -0.019  -0.042   0.146   0.086
   25       -0.018  -0.040   0.149   0.091
   26       -0.019  -0.043   0.145   0.084
   27       -0.018  -0.041   0.151   0.091
   28       -0.019  -0.042   0.148   0.087
   29       -0.018  -0.041   0.138   0.080
   30       -0.018  -0.040   0.141   0.083
   31       -0.019  -0.042   0.150   0.088
   32       -0.016  -0.112   0.003  -0.126
   33       -0.016  -0.112   0.003  -0.126
   34       -0.014  -0.103   0.001  -0.116
   35       -0.014  -0.103   0.001  -0.116
   36       -0.015  -0.105   0.002  -0.119
   37       -0.015  -0.105   0.002  -0.119
   38       -0.016  -0.112   0.003  -0.126
   39       -0.016  -0.112   0.003  -0.126
   40       -0.016  -0.113   0.003  -0.126
   41       -0.016  -0.112   0.003  -0.126
   42       -0.016  -0.111   0.002  -0.125
   43       -0.016  -0.112   0.003  -0.126
   44       -0.016  -0.113   0.003  -0.126
   45       -0.017  -0.112   0.003  -0.126
   46       -0.014  -0.104   0.000  -0.117
   47       -0.016  -0.113   0.002  -0.127
   48        0.009  -0.003   2.184   2.190
--------------------------------------------------
tot         -0.274  -2.256  48.159  45.629
 

 total amount of memory used by VASP MPI-rank0   531061. kBytes
=======================================================================

   base      :      30000. kBytes
   nonl-proj :      78710. kBytes
   fftplans  :       3576. kBytes
   grid      :      10028. kBytes
   one-center:        248. kBytes
   wavefun   :     408499. kBytes
 
  
  
 General timing and accounting informations for this job:
 ========================================================
  
                  Total CPU time used (sec):    13577.355
                            User time (sec):    13448.132
                          System time (sec):      129.224
                         Elapsed time (sec):    13639.171
  
                   Maximum memory used (kb):      766044.
                   Average memory used (kb):           0.
  
                          Minor page faults:        75593
                          Major page faults:          728
                 Voluntary context switches:         7064
