 running on   24 total cores
 distrk:  each k-point on   24 cores,    1 groups
 distr:  one band on    6 cores,    4 groups
 using from now: INCAR     
 vasp.6.1.1 19Jun20 (build Nov 30 2020 11:51:22) complex                        
  
 POSCAR found type information on POSCAR NiGeMnFe
 POSCAR found :  4 types and      48 ions
 scaLAPACK will be used
 -----------------------------------------------------------------------------
|                                                                             |
|               ----> ADVICE to this user running VASP <----                  |
|                                                                             |
|     You have a (more or less) 'large supercell' and for larger cells it     |
|     might be more efficient to use real-space projection operators.         |
|     Therefore, try LREAL= Auto in the INCAR file.                           |
|     Mind: For very accurate calculation, you might also keep the            |
|     reciprocal projection scheme (i.e. LREAL=.FALSE.).                      |
|                                                                             |
 -----------------------------------------------------------------------------

 LDA part: xc-table for Pade appr. of Perdew
 POSCAR, INCAR and KPOINTS ok, starting setup
 FFT: planning ...
 WAVECAR not read
 entering main loop
       N       E                     dE             d eps       ncg     rms          rms(c)
DAV:   1     0.273988940800E+04    0.27399E+04   -0.10963E+05 99360   0.103E+03
DAV:   2     0.151405739320E+03   -0.25885E+04   -0.23120E+04 99360   0.261E+02
DAV:   3    -0.267876584073E+03   -0.41928E+03   -0.34418E+03 99568   0.121E+02
DAV:   4    -0.297691913886E+03   -0.29815E+02   -0.28480E+02122064   0.378E+01
DAV:   5    -0.298465222109E+03   -0.77331E+00   -0.77143E+00120840   0.635E+00    0.971E+01
DAV:   6    -0.389220238715E+03   -0.90755E+02   -0.24634E+02126760   0.107E+02    0.117E+02
DAV:   7    -0.310011198736E+03    0.79209E+02   -0.17650E+02122992   0.838E+01    0.653E+01
DAV:   8    -0.338249163123E+03   -0.28238E+02   -0.48178E+01140784   0.428E+01    0.883E+01
DAV:   9    -0.320516401251E+03    0.17733E+02   -0.34703E+01140392   0.322E+01    0.436E+01
DAV:  10    -0.320968629229E+03   -0.45223E+00   -0.26258E+01127184   0.478E+01    0.625E+01
DAV:  11    -0.305080506818E+03    0.15888E+02   -0.11799E+01157984   0.371E+01    0.223E+01
DAV:  12    -0.312513392948E+03   -0.74329E+01   -0.97411E+00146224   0.194E+01    0.280E+01
DAV:  13    -0.310051881710E+03    0.24615E+01   -0.44107E+00136568   0.212E+01    0.128E+01
DAV:  14    -0.313888202312E+03   -0.38363E+01   -0.54468E+00158448   0.161E+01    0.246E+01
DAV:  15    -0.311907667984E+03    0.19805E+01   -0.34565E+00140832   0.133E+01    0.697E+00
DAV:  16    -0.312078340364E+03   -0.17067E+00   -0.74378E-01150264   0.390E+00    0.565E+00
DAV:  17    -0.312081761463E+03   -0.34211E-02   -0.15967E-01124432   0.243E+00    0.486E+00
DAV:  18    -0.312128472013E+03   -0.46711E-01   -0.40118E-02126280   0.802E-01    0.463E+00
DAV:  19    -0.312182948222E+03   -0.54476E-01   -0.20285E-02145984   0.117E+00    0.445E+00
DAV:  20    -0.312243440149E+03   -0.60492E-01   -0.26929E-02156088   0.155E+00    0.393E+00
DAV:  21    -0.312262283164E+03   -0.18843E-01   -0.78283E-01145920   0.576E+00    0.566E+00
DAV:  22    -0.312367948617E+03   -0.10567E+00   -0.14107E-01141000   0.323E+00    0.276E+00
DAV:  23    -0.312355301989E+03    0.12647E-01   -0.36392E-02141744   0.179E+00    0.150E+00
DAV:  24    -0.312354891573E+03    0.41042E-03   -0.14216E-02152968   0.705E-01    0.746E-01
DAV:  25    -0.312360386944E+03   -0.54954E-02   -0.88299E-03147288   0.667E-01    0.850E-01
DAV:  26    -0.312358009084E+03    0.23779E-02   -0.43659E-03142672   0.629E-01    0.682E-01
DAV:  27    -0.312357856865E+03    0.15222E-03   -0.29227E-03135584   0.211E-01    0.466E-01
DAV:  28    -0.312358686279E+03   -0.82941E-03   -0.76375E-04136168   0.226E-01    0.359E-01
DAV:  29    -0.312359060990E+03   -0.37471E-03   -0.52070E-04141152   0.207E-01    0.258E-01
DAV:  30    -0.312359244683E+03   -0.18369E-03   -0.54623E-04150760   0.177E-01    0.140E-01
DAV:  31    -0.312359261789E+03   -0.17105E-04   -0.27392E-04159200   0.737E-02    0.785E-02
DAV:  32    -0.312359243576E+03    0.18212E-04   -0.72188E-05139496   0.339E-02    0.459E-02
DAV:  33    -0.312359251631E+03   -0.80550E-05   -0.32817E-05122592   0.279E-02    0.197E-02
DAV:  34    -0.312359251468E+03    0.16324E-06   -0.66724E-06100384   0.978E-03
   1 F= -.31235925E+03 E0= -.31235049E+03  d E =-.262785E-01  mag=    51.4592
