 vasp.6.1.1 19Jun20 (build Nov 30 2020 11:51:22) complex                        
  
 executed on             LinuxIFC date 2021.03.24  02:15:05
 running on   24 total cores
 distrk:  each k-point on   24 cores,    1 groups
 distr:  one band on NCORE=   6 cores,    4 groups


--------------------------------------------------------------------------------------------------------


 INCAR:
 POTCAR:    PAW_PBE Ni 02Aug2007                  
 POTCAR:    PAW_PBE Ge 05Jan2001                  
 POTCAR:    PAW_PBE Mn 06Sep2000                  
 POTCAR:    PAW_PBE Fe 06Sep2000                  
 POTCAR:    PAW_PBE Ni 02Aug2007                  
   SHA256 =  0534bc51ca8003dfef23f56753fef9fdd3e22eac8d719fccacb59f3e6b7a69c7 Ni/POTCAR             
   COPYR  = (c) Copyright 02Aug2007 Georg Kresse                                                    
   COPYR  = This file is part of the software VASP. Any use, copying, and all other rights are regul
   COPYR  = If you do not have a valid VASP license, you may not use, copy or distribute this file. 
   VRHFIN =Ni:                                                                                      
   LEXCH  = PE                                                                                      
   EATOM  =  1077.6739 eV,   79.2068 Ry                                                             
                                                                                                    
   TITEL  = PAW_PBE Ni 02Aug2007                                                                    
   LULTRA =        F    use ultrasoft PP ?                                                          
   IUNSCR =        1    unscreen: 0-lin 1-nonlin 2-no                                               
   RPACOR =    2.000    partial core radius                                                         
   POMASS =   58.690; ZVAL   =   10.000    mass and valenz                                          
   RCORE  =    2.300    outmost cutoff radius                                                       
   RWIGS  =    2.430; RWIGS  =    1.286    wigner-seitz radius (au A)                               
   ENMAX  =  269.532; ENMIN  =  202.149 eV                                                          
   RCLOC  =    1.201    cutoff for local pot                                                        
   LCOR   =        T    correct aug charges                                                         
   LPAW   =        T    paw PP                                                                      
   EAUG   =  544.565                                                                                
   DEXC   =    0.000                                                                                
   RMAX   =    2.357    core radius for proj-oper                                                   
   RAUG   =    1.300    factor for augmentation sphere                                              
   RDEP   =    2.390    radius for radial grids                                                     
   RDEPT  =    1.838    core radius for aug-charge                                                  
                                                                                                    
   Atomic configuration                                                                             
    9 entries                                                                                       
     n  l   j            E        occ.                                                              
     1  0  0.50     -8206.4253   2.0000                                                             
     2  0  0.50      -976.1748   2.0000                                                             
     2  1  1.50      -839.0571   6.0000                                                             
     3  0  0.50      -105.9991   2.0000                                                             
     3  1  1.50       -66.4603   6.0000                                                             
     3  2  2.50        -4.6458   9.0000                                                             
     4  0  0.50        -4.4926   1.0000                                                             
     4  1  1.50        -4.0817   0.0000                                                             
     4  3  2.50        -1.3606   0.0000                                                             
   Description                                                                                      
     l       E           TYP  RCUT    TYP  RCUT                                                     
     2     -4.6457903     23  2.300                                                                 
     2     -6.0063729     23  2.300                                                                 
     0     -4.4925590     23  2.300                                                                 
     0      5.0102601     23  2.300                                                                 
     1     -2.7211652     23  2.300                                                                 
     1     16.5183231     23  2.300                                                                 
  local pseudopotential read in
  partial core-charges read in
  partial kinetic energy density read in
  atomic valenz-charges read in
  non local Contribution for L=           2  read in
    real space projection operators read in
  non local Contribution for L=           2  read in
    real space projection operators read in
  non local Contribution for L=           0  read in
    real space projection operators read in
  non local Contribution for L=           0  read in
    real space projection operators read in
  non local Contribution for L=           1  read in
    real space projection operators read in
  non local Contribution for L=           1  read in
    real space projection operators read in
    PAW grid and wavefunctions read in
 
   number of l-projection  operators is LMAX  =           6
   number of lm-projection operators is LMMAX =          18
 
 POTCAR:    PAW_PBE Ge 05Jan2001                  
   SHA256 =  7ff11deedcda39f1950abeda971a84a1f98a719a97bc9679a0df455c008734f8 Ge/POTCAR             
   COPYR  = (c) Copyright 05Jan2001 Georg Kresse                                                    
   COPYR  = This file is part of the software VASP. Any use, copying, and all other rights are regul
   COPYR  = If you do not have a valid VASP license, you may not use, copy or distribute this file. 
   VRHFIN =Ge: s2p2                                                                                 
   LEXCH  = PE                                                                                      
   EATOM  =   104.9960 eV,    7.7170 Ry                                                             
                                                                                                    
   TITEL  = PAW_PBE Ge 05Jan2001                                                                    
   LULTRA =        F    use ultrasoft PP ?                                                          
   IUNSCR =        1    unscreen: 0-lin 1-nonlin 2-no                                               
   RPACOR =    2.170    partial core radius                                                         
   POMASS =   72.610; ZVAL   =    4.000    mass and valenz                                          
   RCORE  =    2.300    outmost cutoff radius                                                       
   RWIGS  =    2.300; RWIGS  =    1.217    wigner-seitz radius (au A)                               
   ENMAX  =  173.807; ENMIN  =  130.355 eV                                                          
   ICORE  =        3    local potential                                                             
   LCOR   =        T    correct aug charges                                                         
   LPAW   =        T    paw PP                                                                      
   EAUG   =  385.843                                                                                
   DEXC   =    0.000                                                                                
   RMAX   =    2.342    core radius for proj-oper                                                   
   RAUG   =    1.300    factor for augmentation sphere                                              
   RDEP   =    2.318    radius for radial grids                                                     
   RDEPT  =    2.103    core radius for aug-charge                                                  
                                                                                                    
   Atomic configuration                                                                             
   10 entries                                                                                       
     n  l   j            E        occ.                                                              
     1  0  0.50    -10959.8463   2.0000                                                             
     2  0  0.50     -1371.6056   2.0000                                                             
     2  1  1.50     -1198.4791   6.0000                                                             
     3  0  0.50      -168.4733   2.0000                                                             
     3  1  1.50      -115.6019   6.0000                                                             
     3  2  2.50       -29.3106  10.0000                                                             
     4  0  0.50       -11.7309   2.0000                                                             
     4  1  0.50        -3.8952   2.0000                                                             
     4  2  1.50        -4.0817   0.0000                                                             
     4  3  2.50        -4.0817   0.0000                                                             
   Description                                                                                      
     l       E           TYP  RCUT    TYP  RCUT                                                     
     0    -11.7309493     23  2.300                                                                 
     0     -7.4578696     23  2.300                                                                 
     1     -3.8952261     23  2.300                                                                 
     1      6.1178114     23  2.300                                                                 
     2     -4.0817478     23  2.300                                                                 
     3     -1.3605826      7  2.300                                                                 
  local pseudopotential read in
  partial core-charges read in
  partial kinetic energy density read in
  atomic valenz-charges read in
  non local Contribution for L=           0  read in
    real space projection operators read in
  non local Contribution for L=           0  read in
    real space projection operators read in
  non local Contribution for L=           1  read in
    real space projection operators read in
  non local Contribution for L=           1  read in
    real space projection operators read in
  non local Contribution for L=           2  read in
    real space projection operators read in
    PAW grid and wavefunctions read in
 
   number of l-projection  operators is LMAX  =           5
   number of lm-projection operators is LMMAX =          13
 
 POTCAR:    PAW_PBE Mn 06Sep2000                  
   SHA256 =  791c87526310ff945dc83749a51ee60ee299d345ff72743aeb14609b9ed68bfc Mn/POTCAR             
   COPYR  = (c) Copyright 06Sep2000 Georg Kresse                                                    
   COPYR  = This file is part of the software VASP. Any use, copying, and all other rights are regul
   COPYR  = If you do not have a valid VASP license, you may not use, copy or distribute this file. 
   VRHFIN =Mn: d6 s1                                                                                
   LEXCH  = PE                                                                                      
   EATOM  =   416.7541 eV,   30.6306 Ry                                                             
                                                                                                    
   TITEL  = PAW_PBE Mn 06Sep2000                                                                    
   LULTRA =        F    use ultrasoft PP ?                                                          
   IUNSCR =        1    unscreen: 0-lin 1-nonlin 2-no                                               
   RPACOR =    2.000    partial core radius                                                         
   POMASS =   54.938; ZVAL   =    7.000    mass and valenz                                          
   RCORE  =    2.300    outmost cutoff radius                                                       
   RWIGS  =    2.500; RWIGS  =    1.323    wigner-seitz radius (au A)                               
   ENMAX  =  269.864; ENMIN  =  202.398 eV                                                          
   RCLOC  =    1.725    cutoff for local pot                                                        
   LCOR   =        T    correct aug charges                                                         
   LPAW   =        T    paw PP                                                                      
   EAUG   =  500.711                                                                                
   DEXC   =    0.000                                                                                
   RMAX   =    2.343    core radius for proj-oper                                                   
   RAUG   =    1.300    factor for augmentation sphere                                              
   RDEP   =    2.338    radius for radial grids                                                     
   RDEPT  =    1.911    core radius for aug-charge                                                  
                                                                                                    
   Atomic configuration                                                                             
    9 entries                                                                                       
     n  l   j            E        occ.                                                              
     1  0  0.50     -6424.8288   2.0000                                                             
     2  0  0.50      -739.1154   2.0000                                                             
     2  1  1.50      -625.3949   6.0000                                                             
     3  0  0.50       -81.6100   2.0000                                                             
     3  1  1.50       -50.4667   6.0000                                                             
     3  2  2.50        -3.3745   6.0000                                                             
     4  0  0.50        -4.1331   1.0000                                                             
     4  1  0.50        -4.0817   0.0000                                                             
     4  3  2.50        -1.3606   0.0000                                                             
   Description                                                                                      
     l       E           TYP  RCUT    TYP  RCUT                                                     
     2     -3.3744664     23  2.300                                                                 
     2     -4.7350490     23  2.300                                                                 
     0     -4.1331408     23  2.300                                                                 
     0      7.6656614     23  2.300                                                                 
     1     -2.7211652     23  2.300                                                                 
     1     20.4087390     23  2.300                                                                 
  local pseudopotential read in
  partial core-charges read in
  partial kinetic energy density read in
  atomic valenz-charges read in
  non local Contribution for L=           2  read in
    real space projection operators read in
  non local Contribution for L=           2  read in
    real space projection operators read in
  non local Contribution for L=           0  read in
    real space projection operators read in
  non local Contribution for L=           0  read in
    real space projection operators read in
  non local Contribution for L=           1  read in
    real space projection operators read in
  non local Contribution for L=           1  read in
    real space projection operators read in
    PAW grid and wavefunctions read in
 
   number of l-projection  operators is LMAX  =           6
   number of lm-projection operators is LMMAX =          18
 
 POTCAR:    PAW_PBE Fe 06Sep2000                  
   SHA256 =  cd5a22d9368cc8b5cc476bea79732366149640da08ac9009b0e1b7fc627eea28 Fe/POTCAR             
   COPYR  = (c) Copyright 06Sep2000 Georg Kresse                                                    
   COPYR  = This file is part of the software VASP. Any use, copying, and all other rights are regul
   COPYR  = If you do not have a valid VASP license, you may not use, copy or distribute this file. 
   VRHFIN =Fe:  d7 s1                                                                               
   LEXCH  = PE                                                                                      
   EATOM  =   594.3153 eV,   43.6809 Ry                                                             
                                                                                                    
   TITEL  = PAW_PBE Fe 06Sep2000                                                                    
   LULTRA =        F    use ultrasoft PP ?                                                          
   IUNSCR =        1    unscreen: 0-lin 1-nonlin 2-no                                               
   RPACOR =    2.000    partial core radius                                                         
   POMASS =   55.847; ZVAL   =    8.000    mass and valenz                                          
   RCORE  =    2.300    outmost cutoff radius                                                       
   RWIGS  =    2.460; RWIGS  =    1.302    wigner-seitz radius (au A)                               
   ENMAX  =  267.882; ENMIN  =  200.911 eV                                                          
   RCLOC  =    1.701    cutoff for local pot                                                        
   LCOR   =        T    correct aug charges                                                         
   LPAW   =        T    paw PP                                                                      
   EAUG   =  511.368                                                                                
   DEXC   =    0.000                                                                                
   RMAX   =    2.356    core radius for proj-oper                                                   
   RAUG   =    1.300    factor for augmentation sphere                                              
   RDEP   =    2.442    radius for radial grids                                                     
   RDEPT  =    1.890    core radius for aug-charge                                                  
                                                                                                    
   Atomic configuration                                                                             
    9 entries                                                                                       
     n  l   j            E        occ.                                                              
     1  0  0.50     -6993.8440   2.0000                                                             
     2  0  0.50      -814.6047   2.0000                                                             
     2  1  1.50      -693.3689   6.0000                                                             
     3  0  0.50       -89.4732   2.0000                                                             
     3  1  1.50       -55.6373   6.0000                                                             
     3  2  2.50        -3.8151   7.0000                                                             
     4  0  0.50        -4.2551   1.0000                                                             
     4  1  1.50        -3.4015   0.0000                                                             
     4  3  2.50        -1.3606   0.0000                                                             
   Description                                                                                      
     l       E           TYP  RCUT    TYP  RCUT                                                     
     2     -3.8151135     23  2.300                                                                 
     2     -5.1756961     23  2.300                                                                 
     0     -4.2550963     23  2.300                                                                 
     0      7.2035603     23  2.300                                                                 
     1     -2.7211652     23  2.300                                                                 
     1     18.4316424     23  2.300                                                                 
  local pseudopotential read in
  partial core-charges read in
  partial kinetic energy density read in
  atomic valenz-charges read in
  non local Contribution for L=           2  read in
    real space projection operators read in
  non local Contribution for L=           2  read in
    real space projection operators read in
  non local Contribution for L=           0  read in
    real space projection operators read in
  non local Contribution for L=           0  read in
    real space projection operators read in
  non local Contribution for L=           1  read in
    real space projection operators read in
  non local Contribution for L=           1  read in
    real space projection operators read in
    PAW grid and wavefunctions read in
 
   number of l-projection  operators is LMAX  =           6
   number of lm-projection operators is LMMAX =          18
 
 -----------------------------------------------------------------------------
|                                                                             |
|               ----> ADVICE to this user running VASP <----                  |
|                                                                             |
|     You have a (more or less) 'large supercell' and for larger cells it     |
|     might be more efficient to use real-space projection operators.         |
|     Therefore, try LREAL= Auto in the INCAR file.                           |
|     Mind: For very accurate calculation, you might also keep the            |
|     reciprocal projection scheme (i.e. LREAL=.FALSE.).                      |
|                                                                             |
 -----------------------------------------------------------------------------

  PAW_PBE Ni 02Aug2007                  :
 energy of atom  1       EATOM=-1077.6739
 kinetic energy error for atom=    0.0038 (will be added to EATOM!!)
  PAW_PBE Ge 05Jan2001                  :
 energy of atom  2       EATOM= -104.9960
 kinetic energy error for atom=    0.0003 (will be added to EATOM!!)
  PAW_PBE Mn 06Sep2000                  :
 energy of atom  3       EATOM= -416.7541
 kinetic energy error for atom=    0.0033 (will be added to EATOM!!)
  PAW_PBE Fe 06Sep2000                  :
 energy of atom  4       EATOM= -594.3153
 kinetic energy error for atom=    0.0034 (will be added to EATOM!!)
 
 
 POSCAR: MnFeNiGe_hex
  positions in direct lattice
  velocities in cartesian coordinates
 exchange correlation table for  LEXCH =        8
   RHO(1)=    0.500       N(1)  =     2000
   RHO(2)=  100.500       N(2)  =     4000
 


--------------------------------------------------------------------------------------------------------


 ion  position               nearest neighbor table
   1  0.667  0.833  0.375-  27 2.41  29 2.41  23 2.41  17 2.68  26 2.68  36 2.75  45 2.75  38 2.75
                            46 2.75  43 2.75  48 2.75
   2  0.333  0.167  0.625-  28 2.41  30 2.41  24 2.41  25 2.68  18 2.68  39 2.75  44 2.75  46 2.75
                            48 2.75  37 2.75  45 2.75
   3  0.167  0.833  0.375-  25 2.41  23 2.41  29 2.41  28 2.68  19 2.68  40 2.75  47 2.75  43 2.75
                            48 2.75  38 2.75  46 2.75
   4  0.833  0.167  0.625-  26 2.41  24 2.41  30 2.41  27 2.68  20 2.68  39 2.75  44 2.75  46 2.75
                            48 2.75  47 2.75  41 2.75
   5  0.167  0.333  0.375-  29 2.41  27 2.41  25 2.41  24 2.68  21 2.68  43 2.75  48 2.75  47 2.75
                            40 2.75  36 2.75  45 2.75
   6  0.833  0.667  0.625-  30 2.41  28 2.41  26 2.41  23 2.68  22 2.68  37 2.75  41 2.75  45 2.75
                            47 2.75  44 2.75  48 2.75
   7  0.833  0.667  0.125-  31 2.41  19 2.41  17 2.41  23 2.68  22 2.68  33 2.75  35 2.75  36 2.75
                            40 2.75  42 2.75  43 2.75
   8  0.167  0.333  0.875-  18 2.41  32 2.41  20 2.41  24 2.68  21 2.68  42 2.75  44 2.75  35 2.75
                            41 2.75  37 2.75  33 2.75
   9  0.333  0.167  0.125-  19 2.41  31 2.41  21 2.41  25 2.68  18 2.68  34 2.75  38 2.75  42 2.75
                            43 2.75  36 2.75  33 2.75
  10  0.667  0.833  0.875-  20 2.41  32 2.41  22 2.41  26 2.68  17 2.68  33 2.75  37 2.75  34 2.75
                            39 2.75  42 2.75  44 2.75
  11  0.833  0.167  0.125-  17 2.41  21 2.41  31 2.41  27 2.68  20 2.68  34 2.75  38 2.75  42 2.75
                            43 2.75  35 2.75  40 2.75
  12  0.167  0.833  0.875-  18 2.41  22 2.41  32 2.41  28 2.68  19 2.68  35 2.75  41 2.75  42 2.75
                            44 2.75  39 2.75  34 2.75
  13  0.333  0.667  0.125-  21 2.41  17 2.41  19 2.41  29 2.68  32 2.68  33 2.75  35 2.75  36 2.75
                            40 2.75  38 2.75  34 2.75
  14  0.667  0.333  0.875-  22 2.41  20 2.41  18 2.41  30 2.68  31 2.68  34 2.75  39 2.75  37 2.75
                            33 2.75  35 2.75  41 2.75
  15  0.667  0.333  0.375-  23 2.41  25 2.41  27 2.41  30 2.68  31 2.68  38 2.75  46 2.75  45 2.75
                            36 2.75  40 2.75  47 2.75
  16  0.333  0.667  0.625-  24 2.41  26 2.41  28 2.41  29 2.68  32 2.68  37 2.75  41 2.75  45 2.75
                            47 2.75  46 2.75  39 2.75
  17  0.667  0.833  0.125-  11 2.41  13 2.41   7 2.41   1 2.68  10 2.68  33 2.75  36 2.75  34 2.75
                            38 2.75  42 2.75  43 2.75
  18  0.333  0.167  0.875-   8 2.41  12 2.41  14 2.41   2 2.68   9 2.68  42 2.75  44 2.75  33 2.75
                            37 2.75  34 2.75  39 2.75
  19  0.167  0.833  0.125-   9 2.41   7 2.41  13 2.41  12 2.68   3 2.68  35 2.75  40 2.75  42 2.75
                            43 2.75  38 2.75  34 2.75
  20  0.833  0.167  0.875-  10 2.41   8 2.41  14 2.41  11 2.68   4 2.68  34 2.75  39 2.75  42 2.75
                            44 2.75  35 2.75  41 2.75
  21  0.167  0.333  0.125-  13 2.41  11 2.41   9 2.41   8 2.68   5 2.68  42 2.75  43 2.75  35 2.75
                            40 2.75  36 2.75  33 2.75
  22  0.833  0.667  0.875-  14 2.41  12 2.41  10 2.41   7 2.68   6 2.68  33 2.75  35 2.75  37 2.75
                            41 2.75  42 2.75  44 2.75
  23  0.833  0.667  0.375-  15 2.41   3 2.41   1 2.41   7 2.68   6 2.68  36 2.75  40 2.75  45 2.75
                            47 2.75  43 2.75  48 2.75
  24  0.167  0.333  0.625-  16 2.41   4 2.41   2 2.41   8 2.68   5 2.68  44 2.75  48 2.75  47 2.75
                            41 2.75  37 2.75  45 2.75
  25  0.333  0.167  0.375-   3 2.41  15 2.41   5 2.41   9 2.68   2 2.68  38 2.75  43 2.75  46 2.75
                            48 2.75  36 2.75  45 2.75
  26  0.667  0.833  0.625-   4 2.41  16 2.41   6 2.41  10 2.68   1 2.68  37 2.75  45 2.75  39 2.75
                            46 2.75  44 2.75  48 2.75
  27  0.833  0.167  0.375-   1 2.41   5 2.41  15 2.41  11 2.68   4 2.68  38 2.75  43 2.75  46 2.75
                            48 2.75  47 2.75  40 2.75
  28  0.167  0.833  0.625-   2 2.41   6 2.41  16 2.41  12 2.68   3 2.68  41 2.75  47 2.75  44 2.75
                            48 2.75  39 2.75  46 2.75
  29  0.333  0.667  0.375-   5 2.41   1 2.41   3 2.41  13 2.68  16 2.68  36 2.75  40 2.75  45 2.75
                            47 2.75  46 2.75  38 2.75
  30  0.667  0.333  0.625-   6 2.41   2 2.41   4 2.41  14 2.68  15 2.68  39 2.75  46 2.75  45 2.75
                            37 2.75  41 2.75  47 2.75
  31  0.667  0.333  0.125-   7 2.41   9 2.41  11 2.41  14 2.68  15 2.68  34 2.75  38 2.75  36 2.75
                            33 2.75  35 2.75  40 2.75
  32  0.333  0.667  0.875-   8 2.41  10 2.41  12 2.41  13 2.68  16 2.68  33 2.75  35 2.75  37 2.75
                            41 2.75  39 2.75  34 2.75
  33  0.500  0.500  0.000-  36 2.68  37 2.68  10 2.75  17 2.75  14 2.75  31 2.75   7 2.75  32 2.75
                            13 2.75  22 2.75   9 2.75  18 2.75  21 2.75   8 2.75
  34  0.500  0.000  0.000-  38 2.68  39 2.68  14 2.75  31 2.75  17 2.75  10 2.75   9 2.75  11 2.75
                            20 2.75  13 2.75  32 2.75  19 2.75  12 2.75  18 2.75
  35  0.000  0.500  0.000-  40 2.68  41 2.68  12 2.75  19 2.75   8 2.75  21 2.75  22 2.75  32 2.75
                             7 2.75  13 2.75  20 2.75  11 2.75  31 2.75  14 2.75
  36  0.500  0.500  0.250-  33 2.68  45 2.68   1 2.75  17 2.75  15 2.75  31 2.75  29 2.75   7 2.75
                            13 2.75  23 2.75   9 2.75  25 2.75   5 2.75  21 2.75
  37  0.500  0.500  0.750-  33 2.68  45 2.68  10 2.75  26 2.75  14 2.75  30 2.75  16 2.75  32 2.75
                            22 2.75   6 2.75   2 2.75  18 2.75  24 2.75   8 2.75
  38  0.500  0.000  0.250-  34 2.68  46 2.68  15 2.75  31 2.75  17 2.75   1 2.75  27 2.75   9 2.75
                            11 2.75  25 2.75  29 2.75  13 2.75   3 2.75  19 2.75
  39  0.500  0.000  0.750-  34 2.68  46 2.68  14 2.75  30 2.75  26 2.75  10 2.75   4 2.75  20 2.75
                             2 2.75  16 2.75  32 2.75  12 2.75  28 2.75  18 2.75
  40  0.000  0.500  0.250-  35 2.68  47 2.68   3 2.75  19 2.75   5 2.75  21 2.75  23 2.75  29 2.75
                             7 2.75  13 2.75  27 2.75  11 2.75  15 2.75  31 2.75
  41  0.000  0.500  0.750-  35 2.68  47 2.68  12 2.75  28 2.75  24 2.75   8 2.75  16 2.75  32 2.75
                            22 2.75   6 2.75   4 2.75  20 2.75  30 2.75  14 2.75
  42  0.000  0.000  0.000-  43 2.68  44 2.68  18 2.75   8 2.75  21 2.75  19 2.75  12 2.75  11 2.75
                             9 2.75  20 2.75   7 2.75  22 2.75  17 2.75  10 2.75
  43  0.000  0.000  0.250-  42 2.68  48 2.68   5 2.75  21 2.75  19 2.75   3 2.75  25 2.75  27 2.75
                             9 2.75  11 2.75   7 2.75  23 2.75  17 2.75   1 2.75
  44  0.000  0.000  0.750-  42 2.68  48 2.68  18 2.75   8 2.75  24 2.75  12 2.75  28 2.75   2 2.75
                            20 2.75   4 2.75   6 2.75  22 2.75  26 2.75  10 2.75
  45  0.500  0.500  0.500-  36 2.68  37 2.68   1 2.75  26 2.75  15 2.75  30 2.75  29 2.75  16 2.75
                            23 2.75   6 2.75  25 2.75   2 2.75   5 2.75  24 2.75
  46  0.500  0.000  0.500-  38 2.68  39 2.68  15 2.75  30 2.75  26 2.75   1 2.75  27 2.75   2 2.75
                            25 2.75   4 2.75  29 2.75  16 2.75   3 2.75  28 2.75
  47  0.000  0.500  0.500-  40 2.68  41 2.68   3 2.75  28 2.75  24 2.75   5 2.75  16 2.75  29 2.75
                            23 2.75   6 2.75   4 2.75  27 2.75  15 2.75  30 2.75
  48  0.000  0.000  0.500-  43 2.68  44 2.68   5 2.75  24 2.75   3 2.75  28 2.75  27 2.75   2 2.75
                             4 2.75  25 2.75   6 2.75  23 2.75   1 2.75  26 2.75
 
  LATTYP: Found a hexagonal cell.
 ALAT       =     8.3365822065
 C/A-ratio  =     1.2850434344
  
  Lattice vectors:
  
 A1 = (   8.3365822066,   0.0000000000,   0.0000000000)
 A2 = (  -4.1682911033,   7.2196919716,   0.0000000000)
 A3 = (   0.0000000000,   0.0000000000,  10.7128702295)


Analysis of symmetry for initial positions (statically):
=====================================================================
 Subroutine PRICEL returns:
 Original cell was already a primitive cell.
 

 Routine SETGRP: Setting up the symmetry group for a 
 hexagonal supercell.


 Subroutine GETGRP returns: Found 12 space group operations
 (whereof 12 operations were pure point group operations)
 out of a pool of 24 trial point group operations.


The static configuration has the point symmetry D_3d.


Analysis of symmetry for dynamics (positions and initial velocities):
=====================================================================
 Subroutine PRICEL returns:
 Original cell was already a primitive cell.
 

 Routine SETGRP: Setting up the symmetry group for a 
 hexagonal supercell.


 Subroutine GETGRP returns: Found 12 space group operations
 (whereof 12 operations were pure point group operations)
 out of a pool of 24 trial point group operations.


The dynamic configuration has the point symmetry D_3d.


Analysis of structural, dynamic, and magnetic symmetry:
=====================================================================
 Subroutine PRICEL returns:
 Original cell was already a primitive cell.
 

 Routine SETGRP: Setting up the symmetry group for a 
 hexagonal supercell.


 Subroutine GETGRP returns: Found 12 space group operations
 (whereof 12 operations were pure point group operations)
 out of a pool of 24 trial point group operations.


The magnetic configuration has the point symmetry D_3d.


 Subroutine INISYM returns: Found 12 space group operations
 (whereof 12 operations are pure point group operations),
 and found     1 'primitive' translations


----------------------------------------------------------------------------------------

                                     Primitive cell                                     

  volume of cell :     644.7815

  direct lattice vectors                    reciprocal lattice vectors
     8.336582207  0.000000000  0.000000000     0.119953234  0.069255032  0.000000000
    -4.168291103  7.219691972  0.000000000     0.000000000  0.138510064  0.000000000
     0.000000000  0.000000000 10.712870230     0.000000000  0.000000000  0.093345665

  length of vectors
     8.336582207  8.336582207 10.712870230     0.138510064  0.138510064  0.093345665

  position of ions in fractional coordinates (direct lattice)
     0.666666666  0.833333333  0.375000000
     0.333333333  0.166666666  0.625000000
     0.166666666  0.833333333  0.375000000
     0.833333333  0.166666666  0.625000000
     0.166666666  0.333333333  0.375000000
     0.833333333  0.666666666  0.625000000
     0.833333333  0.666666666  0.125000000
     0.166666666  0.333333333  0.875000000
     0.333333333  0.166666666  0.125000000
     0.666666666  0.833333333  0.875000000
     0.833333333  0.166666666  0.125000000
     0.166666666  0.833333333  0.875000000
     0.333333333  0.666666666  0.125000000
     0.666666666  0.333333333  0.875000000
     0.666666666  0.333333333  0.375000000
     0.333333333  0.666666666  0.625000000
     0.666666666  0.833333333  0.125000000
     0.333333313  0.166666666  0.875000000
     0.166666666  0.833333333  0.125000000
     0.833333333  0.166666666  0.875000000
     0.166666666  0.333333333  0.125000000
     0.833333333  0.666666666  0.875000000
     0.833333333  0.666666666  0.375000000
     0.166666666  0.333333333  0.625000000
     0.333333333  0.166666666  0.375000000
     0.666666666  0.833333333  0.625000000
     0.833333333  0.166666666  0.375000000
     0.166666666  0.833333333  0.625000000
     0.333333333  0.666666666  0.375000000
     0.666666666  0.333333333  0.625000000
     0.666666666  0.333333333  0.125000000
     0.333333333  0.666666666  0.875000000
     0.500000000  0.500000000  0.000000000
     0.500000000  0.000000000  0.000000000
     0.000000000  0.500000000  0.000000000
     0.500000000  0.500000000  0.250000000
     0.500000000  0.500000000  0.750000000
     0.500000000  0.000000000  0.250000000
     0.500000000  0.000000000  0.750000000
     0.000000000  0.500000000  0.250000000
     0.000000000  0.500000000  0.750000000
     0.000000000  0.000000000  0.000000000
     0.000000000  0.000000000  0.250000000
     0.000000000  0.000000000  0.750000000
     0.500000000  0.500000000  0.500000000
     0.500000000  0.000000000  0.500000000
     0.000000000  0.500000000  0.500000000
     0.000000000  0.000000000  0.500000000

  ion indices of the primitive-cell ions
   primitive index   ion index
                 1           1
                 2           2
                 3           3
                 4           4
                 5           5
                 6           6
                 7           7
                 8           8
                 9           9
                10          10
                11          11
                12          12
                13          13
                14          14
                15          15
                16          16
                17          17
                18          18
                19          19
                20          20
                21          21
                22          22
                23          23
                24          24
                25          25
                26          26
                27          27
                28          28
                29          29
                30          30
                31          31
                32          32
                33          33
                34          34
                35          35
                36          36
                37          37
                38          38
                39          39
                40          40
                41          41
                42          42
                43          43
                44          44
                45          45
                46          46
                47          47
                48          48

----------------------------------------------------------------------------------------

 
 
 KPOINTS: Auto                                    

Automatic generation of k-mesh.
Space group operators:
 irot       det(A)        alpha          n_x          n_y          n_z        tau_x        tau_y        tau_z
    1     1.000000     0.000001     1.000000     0.000000     0.000000     0.000000     0.000000     0.000000
    2    -1.000000     0.000001     1.000000     0.000000     0.000000     0.000000     0.000000     0.000000
    3     1.000000   120.000000     0.000000     0.000000    -1.000000     0.000000     0.000000     0.000000
    4    -1.000000   120.000000     0.000000     0.000000    -1.000000     0.000000     0.000000     0.000000
    5     1.000000   120.000000     0.000000     0.000000     1.000000     0.000000     0.000000     0.000000
    6    -1.000000   120.000000     0.000000     0.000000     1.000000     0.000000     0.000000     0.000000
    7     1.000000   180.000000     1.000000     0.000000     0.000000     0.000000     0.000000     0.000000
    8    -1.000000   180.000000     1.000000     0.000000     0.000000     0.000000     0.000000     0.000000
    9     1.000000   180.000000     0.500000    -0.866025     0.000000     0.000000     0.000000     0.000000
   10    -1.000000   180.000000     0.500000    -0.866025     0.000000     0.000000     0.000000     0.000000
   11     1.000000   180.000000    -0.500000    -0.866025     0.000000     0.000000     0.000000     0.000000
   12    -1.000000   180.000000    -0.500000    -0.866025     0.000000     0.000000     0.000000     0.000000
 
 Subroutine IBZKPT returns following result:
 ===========================================
 
 Found     69 irreducible k-points:
 
 Following reciprocal coordinates:
            Coordinates               Weight
  0.000000  0.000000  0.000000      1.000000
  0.111111  0.000000  0.000000      6.000000
  0.222222  0.000000  0.000000      6.000000
  0.333333 -0.000000  0.000000      6.000000
  0.444444  0.000000  0.000000      6.000000
  0.111111  0.111111  0.000000      6.000000
  0.222222  0.111111  0.000000     12.000000
  0.333333  0.111111  0.000000     12.000000
  0.444444  0.111111  0.000000      6.000000
  0.222222  0.222222  0.000000      6.000000
  0.333333  0.222222  0.000000     12.000000
  0.333333  0.333333  0.000000      2.000000
  0.000000  0.000000  0.142857      2.000000
  0.111111  0.000000  0.142857      6.000000
  0.111111 -0.111111  0.142857      6.000000
  0.222222  0.000000  0.142857      6.000000
  0.222222 -0.222222  0.142857      6.000000
  0.333333 -0.000000  0.142857      6.000000
  0.333333 -0.333333  0.142857      6.000000
  0.444444  0.000000  0.142857      6.000000
  0.444444 -0.444444  0.142857      6.000000
  0.111111  0.111111  0.142857     12.000000
  0.222222  0.111111  0.142857     12.000000
  0.333333 -0.222222  0.142857     12.000000
  0.333333  0.111111  0.142857     12.000000
  0.444444 -0.333333  0.142857     12.000000
  0.444444  0.111111  0.142857     12.000000
  0.222222  0.222222  0.142857     12.000000
  0.333333  0.222222  0.142857     12.000000
 -0.444444 -0.333333  0.142857     12.000000
  0.333333  0.333333  0.142857      4.000000
  0.000000  0.000000  0.285714      2.000000
  0.111111  0.000000  0.285714      6.000000
  0.111111 -0.111111  0.285714      6.000000
  0.222222  0.000000  0.285714      6.000000
  0.222222 -0.222222  0.285714      6.000000
  0.333333 -0.000000  0.285714      6.000000
  0.333333 -0.333333  0.285714      6.000000
  0.444444  0.000000  0.285714      6.000000
  0.444444 -0.444444  0.285714      6.000000
  0.111111  0.111111  0.285714     12.000000
  0.222222  0.111111  0.285714     12.000000
  0.333333 -0.222222  0.285714     12.000000
  0.333333  0.111111  0.285714     12.000000
  0.444444 -0.333333  0.285714     12.000000
  0.444444  0.111111  0.285714     12.000000
  0.222222  0.222222  0.285714     12.000000
  0.333333  0.222222  0.285714     12.000000
 -0.444444 -0.333333  0.285714     12.000000
  0.333333  0.333333  0.285714      4.000000
  0.000000  0.000000  0.428571      2.000000
  0.111111  0.000000  0.428571      6.000000
  0.111111 -0.111111  0.428571      6.000000
  0.222222  0.000000  0.428571      6.000000
  0.222222 -0.222222  0.428571      6.000000
  0.333333 -0.000000  0.428571      6.000000
  0.333333 -0.333333  0.428571      6.000000
  0.444444  0.000000  0.428571      6.000000
  0.444444 -0.444444  0.428571      6.000000
  0.111111  0.111111  0.428571     12.000000
  0.222222  0.111111  0.428571     12.000000
  0.333333 -0.222222  0.428571     12.000000
  0.333333  0.111111  0.428571     12.000000
  0.444444 -0.333333  0.428571     12.000000
  0.444444  0.111111  0.428571     12.000000
  0.222222  0.222222  0.428571     12.000000
  0.333333  0.222222  0.428571     12.000000
 -0.444444 -0.333333  0.428571     12.000000
  0.333333  0.333333  0.428571      4.000000
 
 Following cartesian coordinates:
            Coordinates               Weight
  0.000000  0.000000  0.000000      1.000000
  0.013595  0.007849  0.000000      6.000000
  0.027189  0.015698  0.000000      6.000000
  0.040784  0.023547  0.000000      6.000000
  0.054379  0.031396  0.000000      6.000000
  0.013595  0.023547  0.000000      6.000000
  0.027189  0.031396  0.000000     12.000000
  0.040784  0.039245  0.000000     12.000000
  0.054379  0.047093  0.000000      6.000000
  0.027189  0.047093  0.000000      6.000000
  0.040784  0.054942  0.000000     12.000000
  0.040784  0.070640  0.000000      2.000000
  0.000000  0.000000  0.013602      2.000000
  0.013595  0.007849  0.013602      6.000000
  0.013595 -0.007849  0.013602      6.000000
  0.027189  0.015698  0.013602      6.000000
  0.027189 -0.015698  0.013602      6.000000
  0.040784  0.023547  0.013602      6.000000
  0.040784 -0.023547  0.013602      6.000000
  0.054379  0.031396  0.013602      6.000000
  0.054379 -0.031396  0.013602      6.000000
  0.013595  0.023547  0.013602     12.000000
  0.027189  0.031396  0.013602     12.000000
  0.040784 -0.007849  0.013602     12.000000
  0.040784  0.039245  0.013602     12.000000
  0.054379 -0.015698  0.013602     12.000000
  0.054379  0.047093  0.013602     12.000000
  0.027189  0.047093  0.013602     12.000000
  0.040784  0.054942  0.013602     12.000000
 -0.054379 -0.078489  0.013602     12.000000
  0.040784  0.070640  0.013602      4.000000
  0.000000  0.000000  0.027204      2.000000
  0.013595  0.007849  0.027204      6.000000
  0.013595 -0.007849  0.027204      6.000000
  0.027189  0.015698  0.027204      6.000000
  0.027189 -0.015698  0.027204      6.000000
  0.040784  0.023547  0.027204      6.000000
  0.040784 -0.023547  0.027204      6.000000
  0.054379  0.031396  0.027204      6.000000
  0.054379 -0.031396  0.027204      6.000000
  0.013595  0.023547  0.027204     12.000000
  0.027189  0.031396  0.027204     12.000000
  0.040784 -0.007849  0.027204     12.000000
  0.040784  0.039245  0.027204     12.000000
  0.054379 -0.015698  0.027204     12.000000
  0.054379  0.047093  0.027204     12.000000
  0.027189  0.047093  0.027204     12.000000
  0.040784  0.054942  0.027204     12.000000
 -0.054379 -0.078489  0.027204     12.000000
  0.040784  0.070640  0.027204      4.000000
  0.000000  0.000000  0.040805      2.000000
  0.013595  0.007849  0.040805      6.000000
  0.013595 -0.007849  0.040805      6.000000
  0.027189  0.015698  0.040805      6.000000
  0.027189 -0.015698  0.040805      6.000000
  0.040784  0.023547  0.040805      6.000000
  0.040784 -0.023547  0.040805      6.000000
  0.054379  0.031396  0.040805      6.000000
  0.054379 -0.031396  0.040805      6.000000
  0.013595  0.023547  0.040805     12.000000
  0.027189  0.031396  0.040805     12.000000
  0.040784 -0.007849  0.040805     12.000000
  0.040784  0.039245  0.040805     12.000000
  0.054379 -0.015698  0.040805     12.000000
  0.054379  0.047093  0.040805     12.000000
  0.027189  0.047093  0.040805     12.000000
  0.040784  0.054942  0.040805     12.000000
 -0.054379 -0.078489  0.040805     12.000000
  0.040784  0.070640  0.040805      4.000000
 


--------------------------------------------------------------------------------------------------------




 Dimension of arrays:
   k-points           NKPTS =     69   k-points in BZ     NKDIM =     69   number of bands    NBANDS=    360
   number of dos      NEDOS =    301   number of ions     NIONS =     48
   non local maximal  LDIM  =      6   non local SUM 2l+1 LMDIM =     18
   total plane-waves  NPLWV = 288000
   max r-space proj   IRMAX =      1   max aug-charges    IRDMAX=  24473
   dimension x,y,z NGX =    60 NGY =   60 NGZ =   80
   dimension x,y,z NGXF=   120 NGYF=  120 NGZF=  160
   support grid    NGXF=   120 NGYF=  120 NGZF=  160
   ions per type =              16  16  15   1
   NGX,Y,Z   is equivalent  to a cutoff of  11.97, 11.97, 12.41 a.u.
   NGXF,Y,Z  is equivalent  to a cutoff of  23.93, 23.93, 24.83 a.u.

 SYSTEM =  MnFeNiGe_mag_hex-scf                    
 POSCAR =  MnFeNiGe_hex                            

 Startparameter for this run:
   NWRITE =      2    write-flag & timer
   PREC   = accura    normal or accurate (medium, high low for compatibility)
   ISTART =      0    job   : 0-new  1-cont  2-samecut
   ICHARG =      2    charge: 1-file 2-atom 10-const
   ISPIN  =      2    spin polarized calculation?
   LNONCOLLINEAR =      F non collinear calculations
   LSORBIT =      F    spin-orbit coupling
   INIWAV =      1    electr: 0-lowe 1-rand  2-diag
   LASPH  =      F    aspherical Exc in radial PAW
   METAGGA=      F    non-selfconsistent MetaGGA calc.

 Electronic Relaxation 1
   ENCUT  =  450.0 eV  33.07 Ry    5.75 a.u.  14.42 14.42 18.53*2*pi/ulx,y,z
   ENINI  =  450.0     initial cutoff
   ENAUG  =  544.6 eV  augmentation charge cutoff
   NELM   =     60;   NELMIN=  5; NELMDL= -5     # of ELM steps 
   EDIFF  = 0.1E-05   stopping-criterion for ELM
   LREAL  =      F    real-space projection
   NLSPLINE    = F    spline interpolate recip. space projectors
   LCOMPAT=      F    compatible to vasp.4.4
   GGA_COMPAT  = T    GGA compatible to vasp.4.4-vasp.4.6
   LMAXPAW     = -100 max onsite density
   LMAXMIX     =    2 max onsite mixed and CHGCAR
   VOSKOWN=      0    Vosko Wilk Nusair interpolation
   ROPT   =    0.00000   0.00000   0.00000   0.00000
 Ionic relaxation
   EDIFFG = 0.1E-04   stopping-criterion for IOM
   NSW    =      0    number of steps for IOM
   NBLOCK =      1;   KBLOCK =      1    inner block; outer block 
   IBRION =     -1    ionic relax: 0-MD 1-quasi-New 2-CG
   NFREE  =      0    steps in history (QN), initial steepest desc. (CG)
   ISIF   =      6    stress and relaxation
   IWAVPR =     10    prediction:  0-non 1-charg 2-wave 3-comb
   ISYM   =      2    0-nonsym 1-usesym 2-fastsym
   LCORR  =      T    Harris-Foulkes like correction to forces

   POTIM  = 0.5000    time-step for ionic-motion
   TEIN   =    0.0    initial temperature
   TEBEG  =    0.0;   TEEND  =   0.0 temperature during run
   SMASS  =  -3.00    Nose mass-parameter (am)
   estimated Nose-frequenzy (Omega)   =  0.10E-29 period in steps = 0.13E+47 mass=  -0.159E-26a.u.
   SCALEE = 1.0000    scale energy and forces
   NPACO  =    256;   APACO  = 16.0  distance and # of slots for P.C.
   PSTRESS=    0.0 pullay stress

  Mass of Ions in am
   POMASS =  58.69 72.61 54.94 55.85
  Ionic Valenz
   ZVAL   =  10.00  4.00  7.00  8.00
  Atomic Wigner-Seitz radii
   RWIGS  =  -1.00 -1.00 -1.00 -1.00
  virtual crystal weights 
   VCA    =   1.00  1.00  1.00  1.00
   NELECT =     337.0000    total number of electrons
   NUPDOWN=      -1.0000    fix difference up-down

 DOS related values:
   EMIN   =  10.00;   EMAX   =-10.00  energy-range for DOS
   EFERMI =   0.00
   ISMEAR =     1;   SIGMA  =   0.20  broadening in eV -4-tet -1-fermi 0-gaus

 Electronic relaxation 2 (details)
   IALGO  =     38    algorithm
   LDIAG  =      T    sub-space diagonalisation (order eigenvalues)
   LSUBROT=      F    optimize rotation matrix (better conditioning)
   TURBO    =      0    0=normal 1=particle mesh
   IRESTART =      0    0=no restart 2=restart with 2 vectors
   NREBOOT  =      0    no. of reboots
   NMIN     =      0    reboot dimension
   EREF     =   0.00    reference energy to select bands
   IMIX   =      4    mixing-type and parameters
     AMIX     =   0.40;   BMIX     =  1.00
     AMIX_MAG =   1.60;   BMIX_MAG =  1.00
     AMIN     =   0.10
     WC   =   100.;   INIMIX=   1;  MIXPRE=   1;  MAXMIX= -45

 Intra band minimization:
   WEIMIN = 0.0000     energy-eigenvalue tresh-hold
   EBREAK =  0.69E-09  absolut break condition
   DEPER  =   0.30     relativ break condition  

   TIME   =   0.40     timestep for ELM

  volume/ion in A,a.u.               =      13.43        90.65
  Fermi-wavevector in a.u.,A,eV,Ry     =   1.318704  2.491989 23.660258  1.738980
  Thomas-Fermi vector in A             =   2.448655
 
 Write flags
   LWAVE        =      F    write WAVECAR
   LDOWNSAMPLE  =      F    k-point downsampling of WAVECAR
   LCHARG       =      T    write CHGCAR
   LVTOT        =      F    write LOCPOT, total local potential
   LVHAR        =      F    write LOCPOT, Hartree potential only
   LELF         =      F    write electronic localiz. function (ELF)
   LORBIT       =     11    0 simple, 1 ext, 2 COOP (PROOUT), +10 PAW based schemes


 Dipole corrections
   LMONO  =      F    monopole corrections only (constant potential shift)
   LDIPOL =      F    correct potential (dipole corrections)
   IDIPOL =      0    1-x, 2-y, 3-z, 4-all directions 
   EPSILON=  1.0000000 bulk dielectric constant

 Exchange correlation treatment:
   GGA     =    --    GGA type
   LEXCH   =     8    internal setting for exchange type
   VOSKOWN=      0    Vosko Wilk Nusair interpolation
   LHFCALC =     F    Hartree Fock is set to
   LHFONE  =     F    Hartree Fock one center treatment
   AEXX    =    0.0000 exact exchange contribution

 Linear response parameters
   LEPSILON=     F    determine dielectric tensor
   LRPA    =     F    only Hartree local field effects (RPA)
   LNABLA  =     F    use nabla operator in PAW spheres
   LVEL    =     F    velocity operator in full k-point grid
   LINTERFAST=   F  fast interpolation
   KINTER  =     0    interpolate to denser k-point grid
   CSHIFT  =0.1000    complex shift for real part using Kramers Kronig
   OMEGAMAX=  -1.0    maximum frequency
   DEG_THRESHOLD= 0.2000000E-02 threshold for treating states as degnerate
   RTIME   =   -0.100 relaxation time in fs
  (WPLASMAI=    0.000 imaginary part of plasma frequency in eV, 0.658/RTIME)
   DFIELD  = 0.0000000 0.0000000 0.0000000 field for delta impulse in time
 
 Orbital magnetization related:
   ORBITALMAG=     F  switch on orbital magnetization
   LCHIMAG   =     F  perturbation theory with respect to B field
   DQ        =  0.001000  dq finite difference perturbation B field
   LLRAUG    =     F  two centre corrections for induced B field



--------------------------------------------------------------------------------------------------------


 Static calculation
 charge density and potential will be updated during run
 spin polarized calculation
 Variant of blocked Davidson
 Davidson routine will perform the subspace rotation
 perform sub-space diagonalisation
    after iterative eigenvector-optimisation
 modified Broyden-mixing scheme, WC =      100.0
 initial mixing is a Kerker type mixing with AMIX =  0.4000 and BMIX =      1.0000
 Hartree-type preconditioning will be used
 using additional bands          191
 reciprocal scheme for non local part
 use partial core corrections
 calculate Harris-corrections to forces 
   (improved forces if not selfconsistent)
 use gradient corrections 
 use of overlap-Matrix (Vanderbilt PP)
 Methfessel and Paxton  Order N= 1 SIGMA  =   0.20


--------------------------------------------------------------------------------------------------------


  energy-cutoff  :      450.00
  volume of cell :      644.78
      direct lattice vectors                 reciprocal lattice vectors
     8.336582207  0.000000000  0.000000000     0.119953234  0.069255032  0.000000000
    -4.168291103  7.219691972  0.000000000     0.000000000  0.138510064  0.000000000
     0.000000000  0.000000000 10.712870230     0.000000000  0.000000000  0.093345665

  length of vectors
     8.336582207  8.336582207 10.712870230     0.138510064  0.138510064  0.093345665


 
 k-points in units of 2pi/SCALE and weight: Auto                                    
   0.00000000  0.00000000  0.00000000       0.002
   0.01359470  0.00784890  0.00000000       0.011
   0.02718940  0.01569781  0.00000000       0.011
   0.04078410  0.02354671  0.00000000       0.011
   0.05437880  0.03139561  0.00000000       0.011
   0.01359470  0.02354671  0.00000000       0.011
   0.02718940  0.03139561  0.00000000       0.021
   0.04078410  0.03924452  0.00000000       0.021
   0.05437880  0.04709342  0.00000000       0.011
   0.02718940  0.04709342  0.00000000       0.011
   0.04078410  0.05494233  0.00000000       0.021
   0.04078410  0.07064013  0.00000000       0.004
   0.00000000  0.00000000  0.01360180       0.004
   0.01359470  0.00784890  0.01360180       0.011
   0.01359470 -0.00784890  0.01360180       0.011
   0.02718940  0.01569781  0.01360180       0.011
   0.02718940 -0.01569781  0.01360180       0.011
   0.04078410  0.02354671  0.01360180       0.011
   0.04078410 -0.02354671  0.01360180       0.011
   0.05437880  0.03139561  0.01360180       0.011
   0.05437880 -0.03139561  0.01360180       0.011
   0.01359470  0.02354671  0.01360180       0.021
   0.02718940  0.03139561  0.01360180       0.021
   0.04078410 -0.00784890  0.01360180       0.021
   0.04078410  0.03924452  0.01360180       0.021
   0.05437880 -0.01569781  0.01360180       0.021
   0.05437880  0.04709342  0.01360180       0.021
   0.02718940  0.04709342  0.01360180       0.021
   0.04078410  0.05494233  0.01360180       0.021
  -0.05437880 -0.07848904  0.01360180       0.021
   0.04078410  0.07064013  0.01360180       0.007
   0.00000000  0.00000000  0.02720359       0.004
   0.01359470  0.00784890  0.02720359       0.011
   0.01359470 -0.00784890  0.02720359       0.011
   0.02718940  0.01569781  0.02720359       0.011
   0.02718940 -0.01569781  0.02720359       0.011
   0.04078410  0.02354671  0.02720359       0.011
   0.04078410 -0.02354671  0.02720359       0.011
   0.05437880  0.03139561  0.02720359       0.011
   0.05437880 -0.03139561  0.02720359       0.011
   0.01359470  0.02354671  0.02720359       0.021
   0.02718940  0.03139561  0.02720359       0.021
   0.04078410 -0.00784890  0.02720359       0.021
   0.04078410  0.03924452  0.02720359       0.021
   0.05437880 -0.01569781  0.02720359       0.021
   0.05437880  0.04709342  0.02720359       0.021
   0.02718940  0.04709342  0.02720359       0.021
   0.04078410  0.05494233  0.02720359       0.021
  -0.05437880 -0.07848904  0.02720359       0.021
   0.04078410  0.07064013  0.02720359       0.007
   0.00000000  0.00000000  0.04080539       0.004
   0.01359470  0.00784890  0.04080539       0.011
   0.01359470 -0.00784890  0.04080539       0.011
   0.02718940  0.01569781  0.04080539       0.011
   0.02718940 -0.01569781  0.04080539       0.011
   0.04078410  0.02354671  0.04080539       0.011
   0.04078410 -0.02354671  0.04080539       0.011
   0.05437880  0.03139561  0.04080539       0.011
   0.05437880 -0.03139561  0.04080539       0.011
   0.01359470  0.02354671  0.04080539       0.021
   0.02718940  0.03139561  0.04080539       0.021
   0.04078410 -0.00784890  0.04080539       0.021
   0.04078410  0.03924452  0.04080539       0.021
   0.05437880 -0.01569781  0.04080539       0.021
   0.05437880  0.04709342  0.04080539       0.021
   0.02718940  0.04709342  0.04080539       0.021
   0.04078410  0.05494233  0.04080539       0.021
  -0.05437880 -0.07848904  0.04080539       0.021
   0.04078410  0.07064013  0.04080539       0.007
 
 k-points in reciprocal lattice and weights: Auto                                    
   0.00000000  0.00000000  0.00000000       0.002
   0.11111111  0.00000000  0.00000000       0.011
   0.22222222  0.00000000  0.00000000       0.011
   0.33333333 -0.00000000  0.00000000       0.011
   0.44444444  0.00000000  0.00000000       0.011
   0.11111111  0.11111111  0.00000000       0.011
   0.22222222  0.11111111  0.00000000       0.021
   0.33333333  0.11111111  0.00000000       0.021
   0.44444444  0.11111111  0.00000000       0.011
   0.22222222  0.22222222  0.00000000       0.011
   0.33333333  0.22222222  0.00000000       0.021
   0.33333333  0.33333333  0.00000000       0.004
   0.00000000  0.00000000  0.14285714       0.004
   0.11111111  0.00000000  0.14285714       0.011
   0.11111111 -0.11111111  0.14285714       0.011
   0.22222222  0.00000000  0.14285714       0.011
   0.22222222 -0.22222222  0.14285714       0.011
   0.33333333 -0.00000000  0.14285714       0.011
   0.33333333 -0.33333333  0.14285714       0.011
   0.44444444  0.00000000  0.14285714       0.011
   0.44444444 -0.44444444  0.14285714       0.011
   0.11111111  0.11111111  0.14285714       0.021
   0.22222222  0.11111111  0.14285714       0.021
   0.33333333 -0.22222222  0.14285714       0.021
   0.33333333  0.11111111  0.14285714       0.021
   0.44444444 -0.33333333  0.14285714       0.021
   0.44444444  0.11111111  0.14285714       0.021
   0.22222222  0.22222222  0.14285714       0.021
   0.33333333  0.22222222  0.14285714       0.021
  -0.44444444 -0.33333333  0.14285714       0.021
   0.33333333  0.33333333  0.14285714       0.007
   0.00000000  0.00000000  0.28571429       0.004
   0.11111111  0.00000000  0.28571429       0.011
   0.11111111 -0.11111111  0.28571429       0.011
   0.22222222  0.00000000  0.28571429       0.011
   0.22222222 -0.22222222  0.28571429       0.011
   0.33333333 -0.00000000  0.28571429       0.011
   0.33333333 -0.33333333  0.28571429       0.011
   0.44444444  0.00000000  0.28571429       0.011
   0.44444444 -0.44444444  0.28571429       0.011
   0.11111111  0.11111111  0.28571429       0.021
   0.22222222  0.11111111  0.28571429       0.021
   0.33333333 -0.22222222  0.28571429       0.021
   0.33333333  0.11111111  0.28571429       0.021
   0.44444444 -0.33333333  0.28571429       0.021
   0.44444444  0.11111111  0.28571429       0.021
   0.22222222  0.22222222  0.28571429       0.021
   0.33333333  0.22222222  0.28571429       0.021
  -0.44444444 -0.33333333  0.28571429       0.021
   0.33333333  0.33333333  0.28571429       0.007
   0.00000000  0.00000000  0.42857143       0.004
   0.11111111  0.00000000  0.42857143       0.011
   0.11111111 -0.11111111  0.42857143       0.011
   0.22222222  0.00000000  0.42857143       0.011
   0.22222222 -0.22222222  0.42857143       0.011
   0.33333333 -0.00000000  0.42857143       0.011
   0.33333333 -0.33333333  0.42857143       0.011
   0.44444444  0.00000000  0.42857143       0.011
   0.44444444 -0.44444444  0.42857143       0.011
   0.11111111  0.11111111  0.42857143       0.021
   0.22222222  0.11111111  0.42857143       0.021
   0.33333333 -0.22222222  0.42857143       0.021
   0.33333333  0.11111111  0.42857143       0.021
   0.44444444 -0.33333333  0.42857143       0.021
   0.44444444  0.11111111  0.42857143       0.021
   0.22222222  0.22222222  0.42857143       0.021
   0.33333333  0.22222222  0.42857143       0.021
  -0.44444444 -0.33333333  0.42857143       0.021
   0.33333333  0.33333333  0.42857143       0.007
 
 position of ions in fractional coordinates (direct lattice) 
   0.66666667  0.83333333  0.37500000
   0.33333333  0.16666667  0.62500000
   0.16666667  0.83333333  0.37500000
   0.83333333  0.16666667  0.62500000
   0.16666667  0.33333333  0.37500000
   0.83333333  0.66666667  0.62500000
   0.83333333  0.66666667  0.12500000
   0.16666667  0.33333333  0.87500000
   0.33333333  0.16666667  0.12500000
   0.66666667  0.83333333  0.87500000
   0.83333333  0.16666667  0.12500000
   0.16666667  0.83333333  0.87500000
   0.33333333  0.66666667  0.12500000
   0.66666667  0.33333333  0.87500000
   0.66666667  0.33333333  0.37500000
   0.33333333  0.66666667  0.62500000
   0.66666667  0.83333333  0.12500000
   0.33333331  0.16666667  0.87500000
   0.16666667  0.83333333  0.12500000
   0.83333333  0.16666667  0.87500000
   0.16666667  0.33333333  0.12500000
   0.83333333  0.66666667  0.87500000
   0.83333333  0.66666667  0.37500000
   0.16666667  0.33333333  0.62500000
   0.33333333  0.16666667  0.37500000
   0.66666667  0.83333333  0.62500000
   0.83333333  0.16666667  0.37500000
   0.16666667  0.83333333  0.62500000
   0.33333333  0.66666667  0.37500000
   0.66666667  0.33333333  0.62500000
   0.66666667  0.33333333  0.12500000
   0.33333333  0.66666667  0.87500000
   0.50000000  0.50000000  0.00000000
   0.50000000  0.00000000  0.00000000
   0.00000000  0.50000000  0.00000000
   0.50000000  0.50000000  0.25000000
   0.50000000  0.50000000  0.75000000
   0.50000000  0.00000000  0.25000000
   0.50000000  0.00000000  0.75000000
   0.00000000  0.50000000  0.25000000
   0.00000000  0.50000000  0.75000000
   0.00000000  0.00000000  0.00000000
   0.00000000  0.00000000  0.25000000
   0.00000000  0.00000000  0.75000000
   0.50000000  0.50000000  0.50000000
   0.50000000  0.00000000  0.50000000
   0.00000000  0.50000000  0.50000000
   0.00000000  0.00000000  0.50000000
 
 position of ions in cartesian coordinates  (Angst):
   2.08414555  6.01640997  4.01732634
   2.08414555  1.20328199  6.69554389
  -2.08414556  6.01640997  4.01732634
   6.25243665  1.20328199  6.69554389
  -0.00000000  2.40656399  4.01732634
   4.16829110  4.81312798  6.69554389
   4.16829110  4.81312798  1.33910878
  -0.00000000  2.40656399  9.37376145
   2.08414555  1.20328199  1.33910878
   2.08414555  6.01640997  9.37376145
   6.25243665  1.20328199  1.33910878
  -2.08414556  6.01640997  9.37376145
   0.00000000  4.81312798  1.33910878
   4.16829110  2.40656399  9.37376145
   4.16829110  2.40656399  4.01732634
   0.00000000  4.81312798  6.69554389
   2.08414555  6.01640997  1.33910878
   2.08414538  1.20328199  9.37376145
  -2.08414556  6.01640997  1.33910878
   6.25243665  1.20328199  9.37376145
  -0.00000000  2.40656399  1.33910878
   4.16829110  4.81312798  9.37376145
   4.16829110  4.81312798  4.01732634
  -0.00000000  2.40656399  6.69554389
   2.08414555  1.20328199  4.01732634
   2.08414555  6.01640997  6.69554389
   6.25243665  1.20328199  4.01732634
  -2.08414556  6.01640997  6.69554389
   0.00000000  4.81312798  4.01732634
   4.16829110  2.40656399  6.69554389
   4.16829110  2.40656399  1.33910878
   0.00000000  4.81312798  9.37376145
   2.08414555  3.60984599  0.00000000
   4.16829110  0.00000000  0.00000000
  -2.08414555  3.60984599  0.00000000
   2.08414555  3.60984599  2.67821756
   2.08414555  3.60984599  8.03465267
   4.16829110  0.00000000  2.67821756
   4.16829110  0.00000000  8.03465267
  -2.08414555  3.60984599  2.67821756
  -2.08414555  3.60984599  8.03465267
   0.00000000  0.00000000  0.00000000
   0.00000000  0.00000000  2.67821756
   0.00000000  0.00000000  8.03465267
   2.08414555  3.60984599  5.35643511
   4.16829110  0.00000000  5.35643511
  -2.08414555  3.60984599  5.35643511
   0.00000000  0.00000000  5.35643511
 


--------------------------------------------------------------------------------------------------------


 k-point   1 :   0.0000 0.0000 0.0000  plane waves:   13987
 k-point   2 :   0.1111 0.0000 0.0000  plane waves:   14015
 k-point   3 :   0.2222 0.0000 0.0000  plane waves:   14007
 k-point   4 :   0.3333-0.0000 0.0000  plane waves:   13991
 k-point   5 :   0.4444 0.0000 0.0000  plane waves:   13965
 k-point   6 :   0.1111 0.1111 0.0000  plane waves:   13999
 k-point   7 :   0.2222 0.1111 0.0000  plane waves:   14002
 k-point   8 :   0.3333 0.1111 0.0000  plane waves:   13988
 k-point   9 :   0.4444 0.1111 0.0000  plane waves:   13952
 k-point  10 :   0.2222 0.2222 0.0000  plane waves:   13990
 k-point  11 :   0.3333 0.2222 0.0000  plane waves:   13944
 k-point  12 :   0.3333 0.3333 0.0000  plane waves:   13920
 k-point  13 :   0.0000 0.0000 0.1429  plane waves:   13963
 k-point  14 :   0.1111 0.0000 0.1429  plane waves:   13993
 k-point  15 :   0.1111-0.1111 0.1429  plane waves:   13993
 k-point  16 :   0.2222 0.0000 0.1429  plane waves:   14000
 k-point  17 :   0.2222-0.2222 0.1429  plane waves:   14000
 k-point  18 :   0.3333-0.0000 0.1429  plane waves:   13986
 k-point  19 :   0.3333-0.3333 0.1429  plane waves:   13986
 k-point  20 :   0.4444 0.0000 0.1429  plane waves:   13972
 k-point  21 :   0.4444-0.4444 0.1429  plane waves:   13972
 k-point  22 :   0.1111 0.1111 0.1429  plane waves:   14007
 k-point  23 :   0.2222 0.1111 0.1429  plane waves:   13990
 k-point  24 :   0.3333-0.2222 0.1429  plane waves:   13990
 k-point  25 :   0.3333 0.1111 0.1429  plane waves:   13974
 k-point  26 :   0.4444-0.3333 0.1429  plane waves:   13974
 k-point  27 :   0.4444 0.1111 0.1429  plane waves:   13958
 k-point  28 :   0.2222 0.2222 0.1429  plane waves:   13975
 k-point  29 :   0.3333 0.2222 0.1429  plane waves:   13963
 k-point  30 :  -0.4444-0.3333 0.1429  plane waves:   13963
 k-point  31 :   0.3333 0.3333 0.1429  plane waves:   13926
 k-point  32 :   0.0000 0.0000 0.2857  plane waves:   13981
 k-point  33 :   0.1111 0.0000 0.2857  plane waves:   13990
 k-point  34 :   0.1111-0.1111 0.2857  plane waves:   13990
 k-point  35 :   0.2222 0.0000 0.2857  plane waves:   13981
 k-point  36 :   0.2222-0.2222 0.2857  plane waves:   13981
 k-point  37 :   0.3333-0.0000 0.2857  plane waves:   13992
 k-point  38 :   0.3333-0.3333 0.2857  plane waves:   13992
 k-point  39 :   0.4444 0.0000 0.2857  plane waves:   13985
 k-point  40 :   0.4444-0.4444 0.2857  plane waves:   13985
 k-point  41 :   0.1111 0.1111 0.2857  plane waves:   13999
 k-point  42 :   0.2222 0.1111 0.2857  plane waves:   13986
 k-point  43 :   0.3333-0.2222 0.2857  plane waves:   13986
 k-point  44 :   0.3333 0.1111 0.2857  plane waves:   13971
 k-point  45 :   0.4444-0.3333 0.2857  plane waves:   13971
 k-point  46 :   0.4444 0.1111 0.2857  plane waves:   13968
 k-point  47 :   0.2222 0.2222 0.2857  plane waves:   13956
 k-point  48 :   0.3333 0.2222 0.2857  plane waves:   13962
 k-point  49 :  -0.4444-0.3333 0.2857  plane waves:   13962
 k-point  50 :   0.3333 0.3333 0.2857  plane waves:   13962
 k-point  51 :   0.0000 0.0000 0.4286  plane waves:   13915
 k-point  52 :   0.1111 0.0000 0.4286  plane waves:   13979
 k-point  53 :   0.1111-0.1111 0.4286  plane waves:   13979
 k-point  54 :   0.2222 0.0000 0.4286  plane waves:   13982
 k-point  55 :   0.2222-0.2222 0.4286  plane waves:   13982
 k-point  56 :   0.3333-0.0000 0.4286  plane waves:   13981
 k-point  57 :   0.3333-0.3333 0.4286  plane waves:   13981
 k-point  58 :   0.4444 0.0000 0.4286  plane waves:   13962
 k-point  59 :   0.4444-0.4444 0.4286  plane waves:   13962
 k-point  60 :   0.1111 0.1111 0.4286  plane waves:   13982
 k-point  61 :   0.2222 0.1111 0.4286  plane waves:   13982
 k-point  62 :   0.3333-0.2222 0.4286  plane waves:   13982
 k-point  63 :   0.3333 0.1111 0.4286  plane waves:   13959
 k-point  64 :   0.4444-0.3333 0.4286  plane waves:   13959
 k-point  65 :   0.4444 0.1111 0.4286  plane waves:   13971
 k-point  66 :   0.2222 0.2222 0.4286  plane waves:   13969
 k-point  67 :   0.3333 0.2222 0.4286  plane waves:   13969
 k-point  68 :  -0.4444-0.3333 0.4286  plane waves:   13969
 k-point  69 :   0.3333 0.3333 0.4286  plane waves:   13980

 maximum and minimum number of plane-waves per node :      2360     2303

 maximum number of plane-waves:     14015
 maximum index in each direction: 
   IXMAX=   14   IYMAX=   14   IZMAX=   18
   IXMIN=  -14   IYMIN=  -14   IZMIN=  -18


 parallel 3D FFT for wavefunctions:
    minimum data exchange during FFTs selected (reduces bandwidth)
 parallel 3D FFT for charge:
    minimum data exchange during FFTs selected (reduces bandwidth)


 total amount of memory used by VASP MPI-rank0   636868. kBytes
=======================================================================

   base      :      30000. kBytes
   nonl-proj :      95122. kBytes
   fftplans  :       4707. kBytes
   grid      :      13171. kBytes
   one-center:        248. kBytes
   wavefun   :     493620. kBytes
 
     INWAV:  cpu time    0.0010: real time    0.0056
 Broyden mixing: mesh for mixing (old mesh)
   NGX = 29   NGY = 29   NGZ = 37
  (NGX  =120   NGY  =120   NGZ  =160)
  gives a total of  31117 points

 initial charge density was supplied:
 charge density of overlapping atoms calculated
 number of electron     337.0000000 magnetization     160.0000000
 keeping initial charge density in first step


--------------------------------------------------------------------------------------------------------


 Maximum index for augmentation-charges         1042 (set IRDMAX)


--------------------------------------------------------------------------------------------------------


 First call to EWALD:  gamma=   0.205
 Maximum number of real-space cells 3x 3x 2
 Maximum number of reciprocal cells 3x 3x 3

    FEWALD:  cpu time    0.0020: real time    0.0221


--------------------------------------- Iteration      1(   1)  ---------------------------------------


    POTLOK:  cpu time    0.2100: real time    0.5424
    SETDIJ:  cpu time    0.0350: real time    0.1685
     EDDAV:  cpu time  361.1071: real time  366.9778
       DOS:  cpu time    0.0420: real time    0.0836
    --------------------------------------------
      LOOP:  cpu time  361.3941: real time  367.7724

 eigenvalue-minimisations  : 99360
 total energy-change (2. order) : 0.2739889E+04  (-0.1096279E+05)
 number of electron     337.0000000 magnetization     160.0000000
 augmentation part      337.0000000 magnetization     160.0000000

 Free energy of the ion-electron system (eV)
  ---------------------------------------------------
  alpha Z        PSCENC =      1489.53622637
  Ewald energy   TEWEN  =    -22061.79302384
  -Hartree energ DENC   =     -6898.61182810
  -exchange      EXHF   =         0.00000000
  -V(xc)+E(xc)   XCENC  =       310.07096057
  PAW double counting   =     23377.83946347   -23998.34197029
  entropy T*S    EENTRO =        -0.00109181
  eigenvalues    EBANDS =      4752.96394491
  atomic energy  EATOM  =     25768.22672671
  Solvation  Ediel_sol  =         0.00000000
  ---------------------------------------------------
  free energy    TOTEN  =      2739.88940800 eV

  energy without entropy =     2739.89049980  energy(sigma->0) =     2739.88977193


--------------------------------------------------------------------------------------------------------




--------------------------------------- Iteration      1(   2)  ---------------------------------------


     EDDAV:  cpu time  360.6192: real time  362.4911
       DOS:  cpu time    0.0520: real time    0.0522
    --------------------------------------------
      LOOP:  cpu time  360.6712: real time  362.5433

 eigenvalue-minimisations  : 99360
 total energy-change (2. order) :-0.2588484E+04  (-0.2312001E+04)
 number of electron     337.0000000 magnetization     160.0000000
 augmentation part      337.0000000 magnetization     160.0000000

 Free energy of the ion-electron system (eV)
  ---------------------------------------------------
  alpha Z        PSCENC =      1489.53622637
  Ewald energy   TEWEN  =    -22061.79302384
  -Hartree energ DENC   =     -6898.61182810
  -exchange      EXHF   =         0.00000000
  -V(xc)+E(xc)   XCENC  =       310.07096057
  PAW double counting   =     23377.83946347   -23998.34197029
  entropy T*S    EENTRO =         0.00812720
  eigenvalues    EBANDS =      2164.47105722
  atomic energy  EATOM  =     25768.22672671
  Solvation  Ediel_sol  =         0.00000000
  ---------------------------------------------------
  free energy    TOTEN  =       151.40573932 eV

  energy without entropy =      151.39761212  energy(sigma->0) =      151.40303025


--------------------------------------------------------------------------------------------------------




--------------------------------------- Iteration      1(   3)  ---------------------------------------


     EDDAV:  cpu time  361.6900: real time  362.9643
       DOS:  cpu time    0.0580: real time    0.0579
    --------------------------------------------
      LOOP:  cpu time  361.7480: real time  363.0221

 eigenvalue-minimisations  : 99568
 total energy-change (2. order) :-0.4192823E+03  (-0.3441829E+03)
 number of electron     337.0000000 magnetization     160.0000000
 augmentation part      337.0000000 magnetization     160.0000000

 Free energy of the ion-electron system (eV)
  ---------------------------------------------------
  alpha Z        PSCENC =      1489.53622637
  Ewald energy   TEWEN  =    -22061.79302384
  -Hartree energ DENC   =     -6898.61182810
  -exchange      EXHF   =         0.00000000
  -V(xc)+E(xc)   XCENC  =       310.07096057
  PAW double counting   =     23377.83946347   -23998.34197029
  entropy T*S    EENTRO =         0.04661162
  eigenvalues    EBANDS =      1745.15024941
  atomic energy  EATOM  =     25768.22672671
  Solvation  Ediel_sol  =         0.00000000
  ---------------------------------------------------
  free energy    TOTEN  =      -267.87658407 eV

  energy without entropy =     -267.92319569  energy(sigma->0) =     -267.89212128


--------------------------------------------------------------------------------------------------------




--------------------------------------- Iteration      1(   4)  ---------------------------------------


     EDDAV:  cpu time  423.2457: real time  424.7725
       DOS:  cpu time    0.0590: real time    0.0594
    --------------------------------------------
      LOOP:  cpu time  423.3046: real time  424.8319

 eigenvalue-minimisations  :122064
 total energy-change (2. order) :-0.2981533E+02  (-0.2847965E+02)
 number of electron     337.0000000 magnetization     160.0000000
 augmentation part      337.0000000 magnetization     160.0000000

 Free energy of the ion-electron system (eV)
  ---------------------------------------------------
  alpha Z        PSCENC =      1489.53622637
  Ewald energy   TEWEN  =    -22061.79302384
  -Hartree energ DENC   =     -6898.61182810
  -exchange      EXHF   =         0.00000000
  -V(xc)+E(xc)   XCENC  =       310.07096057
  PAW double counting   =     23377.83946347   -23998.34197029
  entropy T*S    EENTRO =         0.06408557
  eigenvalues    EBANDS =      1715.31744565
  atomic energy  EATOM  =     25768.22672671
  Solvation  Ediel_sol  =         0.00000000
  ---------------------------------------------------
  free energy    TOTEN  =      -297.69191389 eV

  energy without entropy =     -297.75599945  energy(sigma->0) =     -297.71327574


--------------------------------------------------------------------------------------------------------




--------------------------------------- Iteration      1(   5)  ---------------------------------------


     EDDAV:  cpu time  419.4972: real time  421.1982
       DOS:  cpu time    0.0620: real time    0.0616
    CHARGE:  cpu time    6.3230: real time    6.4491
    MIXING:  cpu time    0.0080: real time    0.0794
    --------------------------------------------
      LOOP:  cpu time  425.8903: real time  427.7882

 eigenvalue-minimisations  :120840
 total energy-change (2. order) :-0.7733082E+00  (-0.7714256E+00)
 number of electron     337.0000029 magnetization     129.0948083
 augmentation part      119.3420607 magnetization     103.0299283

 Broyden mixing:
  rms(total) = 0.97066E+01    rms(broyden)= 0.97063E+01
  rms(prec ) = 0.10696E+02
  weight for this iteration     100.00

 Free energy of the ion-electron system (eV)
  ---------------------------------------------------
  alpha Z        PSCENC =      1489.53622637
  Ewald energy   TEWEN  =    -22061.79302384
  -Hartree energ DENC   =     -6898.61182810
  -exchange      EXHF   =         0.00000000
  -V(xc)+E(xc)   XCENC  =       310.07096057
  PAW double counting   =     23377.83946347   -23998.34197029
  entropy T*S    EENTRO =         0.06396822
  eigenvalues    EBANDS =      1714.54425478
  atomic energy  EATOM  =     25768.22672671
  Solvation  Ediel_sol  =         0.00000000
  ---------------------------------------------------
  free energy    TOTEN  =      -298.46522211 eV

  energy without entropy =     -298.52919033  energy(sigma->0) =     -298.48654485


--------------------------------------------------------------------------------------------------------




--------------------------------------- Iteration      1(   6)  ---------------------------------------


    POTLOK:  cpu time    0.1920: real time    0.1988
    SETDIJ:  cpu time    0.0300: real time    0.0300
     EDDAV:  cpu time  434.7219: real time  436.4421
       DOS:  cpu time    0.0630: real time    0.0635
    CHARGE:  cpu time    5.9941: real time    6.0164
    MIXING:  cpu time    0.0080: real time    0.1208
    --------------------------------------------
[...]
   43        0.022   0.020   3.184   3.226
   44        0.022   0.020   3.184   3.226
   45        0.020   0.022   3.108   3.150
   46        0.020   0.022   3.108   3.150
   47        0.020   0.022   3.108   3.150
   48        0.015   0.010   2.505   2.530
--------------------------------------------------
tot         -0.246  -1.646  52.227  50.334
 
    CHARGE:  cpu time    5.9191: real time    5.9294
    FORLOC:  cpu time    0.0270: real time    0.0375
    FORNL :  cpu time  117.9671: real time  118.3149
    STRESS:  cpu time  207.5914: real time  208.3009
    FORCOR:  cpu time    0.2150: real time    0.2522
    FORHAR:  cpu time    0.0440: real time    0.0527
    MIXING:  cpu time    0.0100: real time    0.0102
    OFIELD:  cpu time    0.0000: real time    0.0047

  FORCE on cell =-STRESS in cart. coord.  units (eV):
  Direction    XX          YY          ZZ          XY          YZ          ZX
  --------------------------------------------------------------------------------------
  Alpha Z  1489.53623  1489.53623  1489.53623
  Ewald   -7139.63568 -7139.63568 -7782.61370    -0.00001     0.00000     0.00000
  Hartree  2193.69136  2193.69135  2051.32717    -0.00000     0.00000    -0.00000
  E(xc)   -1648.98838 -1648.98839 -1652.97330    -0.00001     0.00000    -0.00000
  Local    -794.49303  -794.49400  -114.11745    -0.00083    -0.00000     0.00000
  n-local  -253.10712  -256.21559  -289.85489     1.07936    -0.63578    -0.31260
  augment  3307.37012  3307.37084  3375.22418     0.00062     0.00000    -0.00000
  Kinetic  2819.18576  2816.74510  2900.24892     1.80305    -0.57623     0.48560
  Fock        0.00000     0.00000     0.00000     0.00000     0.00000     0.00000
  -------------------------------------------------------------------------------------
  Total     -29.21545   -29.21545   -23.22285     0.00000    -0.00000     0.00000
  in kB     -72.59566   -72.59566   -57.70500     0.00000    -0.00000     0.00000
  external pressure =      -67.63 kB  Pullay stress =        0.00 kB


 VOLUME and BASIS-vectors are now :
 -----------------------------------------------------------------------------
  energy-cutoff  :      450.00
  volume of cell :      644.78
      direct lattice vectors                 reciprocal lattice vectors
     8.336582207  0.000000000  0.000000000     0.119953234  0.069255032  0.000000000
    -4.168291103  7.219691972  0.000000000     0.000000000  0.138510064  0.000000000
     0.000000000  0.000000000 10.712870230     0.000000000  0.000000000  0.093345665

  length of vectors
     8.336582207  8.336582207 10.712870230     0.138510064  0.138510064  0.093345665


 FORCES acting on ions
    electron-ion (+dipol)            ewald-force                    non-local-force                 convergence-correction
 -----------------------------------------------------------------------------------------------
   0.116E+02 0.671E+01 0.949E+01   -.116E+02 -.672E+01 -.948E+01   0.399E-01 0.230E-01 0.743E-02   -.935E-02 -.540E-02 -.685E-02
   -.116E+02 -.671E+01 -.949E+01   0.116E+02 0.672E+01 0.948E+01   -.399E-01 -.230E-01 -.743E-02   0.935E-02 0.540E-02 0.685E-02
   -.116E+02 0.671E+01 0.949E+01   0.116E+02 -.672E+01 -.948E+01   -.399E-01 0.230E-01 0.743E-02   0.935E-02 -.540E-02 -.685E-02
   0.116E+02 -.671E+01 -.949E+01   -.116E+02 0.672E+01 0.948E+01   0.399E-01 -.230E-01 -.743E-02   -.935E-02 0.540E-02 0.685E-02
   0.463E-06 -.134E+02 0.949E+01   0.101E-05 0.134E+02 -.948E+01   0.434E-18 -.460E-01 0.743E-02   0.166E-07 0.108E-01 -.685E-02
   -.713E-06 0.134E+02 -.949E+01   -.609E-06 -.134E+02 0.948E+01   -.325E-18 0.460E-01 -.743E-02   -.162E-07 -.108E-01 0.685E-02
   -.602E-06 0.172E+01 0.404E+01   -.609E-06 -.172E+01 -.406E+01   0.130E-17 0.315E-01 0.193E-01   -.409E-08 -.406E-03 -.192E-02
   -.112E-05 -.172E+01 -.404E+01   -.857E-05 0.172E+01 0.406E+01   -.130E-17 -.315E-01 -.193E-01   0.434E-08 0.406E-03 0.192E-02
   -.149E+01 -.858E+00 0.404E+01   0.149E+01 0.862E+00 -.406E+01   -.272E-01 -.157E-01 0.193E-01   0.351E-03 0.203E-03 -.192E-02
   0.149E+01 0.858E+00 -.404E+01   -.149E+01 -.862E+00 0.406E+01   0.272E-01 0.157E-01 -.193E-01   -.351E-03 -.203E-03 0.192E-02
   0.149E+01 -.858E+00 0.404E+01   -.149E+01 0.862E+00 -.406E+01   0.272E-01 -.157E-01 0.193E-01   -.351E-03 0.203E-03 -.192E-02
   -.149E+01 0.858E+00 -.404E+01   0.149E+01 -.862E+00 0.406E+01   -.272E-01 0.157E-01 -.193E-01   0.351E-03 -.203E-03 0.192E-02
   -.604E-06 0.208E-06 0.268E+01   -.609E-06 0.201E-05 -.268E+01   -.130E-17 0.000E+00 0.142E-02   0.102E-08 -.341E-07 0.241E-02
   -.113E-05 -.184E-05 -.268E+01   -.857E-05 -.888E-05 0.268E+01   0.130E-17 0.000E+00 -.142E-02   -.773E-09 0.240E-07 -.241E-02
   0.312E-06 -.517E-06 0.336E+01   0.104E-05 -.116E-06 -.338E+01   0.000E+00 0.000E+00 0.400E-01   0.465E-10 0.113E-07 -.472E-02
   -.592E-06 0.205E-06 -.336E+01   -.609E-06 0.201E-05 0.338E+01   -.217E-18 0.000E+00 -.400E-01   0.385E-09 -.337E-07 0.472E-02
   0.595E+00 0.343E+00 0.161E+01   -.597E+00 -.345E+00 -.162E+01   0.122E-01 0.703E-02 0.260E-02   -.381E-03 -.220E-03 -.662E-03
   -.595E+00 -.343E+00 -.161E+01   0.597E+00 0.345E+00 0.162E+01   -.122E-01 -.703E-02 -.260E-02   0.381E-03 0.220E-03 0.662E-03
   -.595E+00 0.343E+00 0.161E+01   0.597E+00 -.345E+00 -.162E+01   -.122E-01 0.703E-02 0.260E-02   0.381E-03 -.220E-03 -.662E-03
   0.595E+00 -.343E+00 -.161E+01   -.597E+00 0.345E+00 0.162E+01   0.122E-01 -.703E-02 -.260E-02   -.381E-03 0.220E-03 0.662E-03
   0.145E-05 -.687E+00 0.161E+01   0.343E-06 0.690E+00 -.162E+01   -.347E-17 -.141E-01 0.260E-02   -.179E-09 0.440E-03 -.662E-03
   -.140E-05 0.687E+00 -.161E+01   -.591E-06 -.690E+00 0.162E+01   0.000E+00 0.141E-01 -.260E-02   0.343E-09 -.440E-03 0.662E-03
   -.138E-05 0.536E+01 0.378E+01   -.406E-06 -.538E+01 -.379E+01   0.173E-17 0.108E+00 0.820E-01   -.414E-09 -.425E-02 -.247E-02
   0.146E-05 -.536E+01 -.378E+01   0.335E-06 0.538E+01 0.379E+01   -.173E-17 -.108E+00 -.820E-01   0.497E-09 0.425E-02 0.247E-02
   -.464E+01 -.268E+01 0.378E+01   0.466E+01 0.269E+01 -.379E+01   -.938E-01 -.542E-01 0.820E-01   0.368E-02 0.212E-02 -.247E-02
   0.464E+01 0.268E+01 -.378E+01   -.466E+01 -.269E+01 0.379E+01   0.938E-01 0.542E-01 -.820E-01   -.368E-02 -.212E-02 0.247E-02
   0.464E+01 -.268E+01 0.378E+01   -.466E+01 0.269E+01 -.379E+01   0.938E-01 -.542E-01 0.820E-01   -.368E-02 0.212E-02 -.247E-02
   -.464E+01 0.268E+01 -.378E+01   0.466E+01 -.269E+01 0.379E+01   -.938E-01 0.542E-01 -.820E-01   0.368E-02 -.212E-02 0.247E-02
   -.137E-05 0.940E-06 0.135E+01   -.406E-06 0.604E-06 -.135E+01   0.000E+00 -.173E-17 0.331E-02   -.795E-09 -.708E-08 -.168E-02
   0.144E-05 -.798E-06 -.135E+01   0.348E-06 -.567E-06 0.135E+01   0.173E-17 0.173E-17 -.331E-02   0.889E-09 0.518E-08 0.168E-02
   0.145E-05 -.796E-06 0.108E+01   0.345E-06 -.569E-06 -.107E+01   0.607E-17 0.000E+00 0.120E-01   -.392E-10 0.571E-08 0.873E-03
   -.140E-05 0.110E-05 -.108E+01   -.591E-06 0.165E-05 0.107E+01   -.607E-17 0.000E+00 -.120E-01   0.205E-09 -.150E-07 -.873E-03
   0.542E-06 0.273E-06 0.184E-10   0.215E-05 -.680E-06 -.109E-12   0.000E+00 0.000E+00 0.000E+00   -.247E-07 -.122E-10 0.155E-12
   -.288E-06 0.752E-06 -.515E-06   -.334E-05 0.249E-05 -.339E-05   0.000E+00 0.000E+00 0.000E+00   0.128E-09 -.144E-07 0.695E-08
   -.299E-08 0.273E-06 -.395E-10   -.145E-05 -.680E-06 0.686E-13   0.165E-23 0.000E+00 0.000E+00   0.242E-07 -.123E-10 -.285E-13
   0.772E-02 -.446E-02 0.336E+01   -.791E-07 -.680E-06 -.337E+01   -.236E-02 0.136E-02 0.152E-01   -.883E-04 0.510E-04 -.115E-02
   -.772E-02 0.446E-02 -.336E+01   0.215E-05 -.680E-06 0.337E+01   0.236E-02 -.136E-02 -.152E-01   0.883E-04 -.510E-04 0.115E-02
   0.147E-06 0.891E-02 0.336E+01   -.459E-06 -.461E-06 -.337E+01   0.000E+00 -.273E-02 0.152E-01   0.350E-08 -.102E-03 -.115E-02
   -.288E-06 -.891E-02 -.336E+01   -.334E-05 0.249E-05 0.337E+01   -.217E-18 0.273E-02 -.152E-01   -.326E-08 0.102E-03 0.115E-02
   -.772E-02 -.446E-02 0.336E+01   -.642E-06 -.680E-06 -.337E+01   0.236E-02 0.136E-02 0.152E-01   0.883E-04 0.510E-04 -.115E-02
   0.772E-02 0.446E-02 -.336E+01   -.145E-05 -.680E-06 0.337E+01   -.236E-02 -.136E-02 -.152E-01   -.883E-04 -.510E-04 0.115E-02
   -.288E-06 -.206E-06 0.515E-06   -.334E-05 -.385E-05 0.339E-05   0.265E-22 0.000E+00 0.000E+00   0.127E-09 0.143E-07 -.695E-08
   0.146E-06 0.237E-06 0.134E+02   -.459E-06 -.899E-06 -.134E+02   0.108E-18 0.000E+00 0.265E+00   0.526E-09 0.835E-08 -.103E-01
   -.287E-06 -.204E-06 -.134E+02   -.334E-05 -.385E-05 0.134E+02   0.000E+00 0.000E+00 -.265E+00   -.289E-09 0.146E-07 0.103E-01
   0.205E-06 0.273E-06 -.324E-11   -.791E-07 -.680E-06 0.639E-13   0.248E-23 0.000E+00 0.000E+00   -.148E-07 -.116E-10 -.154E-12
   0.148E-06 0.306E-06 0.747E-07   -.459E-06 -.461E-06 0.495E-06   0.000E+00 0.000E+00 0.000E+00   0.111E-09 -.861E-08 -.626E-08
   0.120E-06 0.273E-06 0.256E-10   -.642E-06 -.680E-06 0.426E-13   0.000E+00 0.000E+00 0.000E+00   0.146E-07 -.111E-10 -.224E-12
   0.169E-06 0.274E-06 -.854E-07   -.524E-06 -.103E-05 -.565E-06   0.000E+00 0.000E+00 0.000E+00   0.135E-09 0.100E-07 0.736E-08
 -----------------------------------------------------------------------------------------------
   -.385E-05 0.242E-05 -.789E-07   0.247E-12 -.872E-13 -.290E-12   0.149E-16 -.137E-16 0.000E+00   -.996E-09 0.188E-08 0.139E-08
 
 
 POSITION                                       TOTAL-FORCE (eV/Angst)
 -----------------------------------------------------------------------------------
      2.08415      6.01641      4.01733         0.013459      0.007770      0.012511
      2.08415      1.20328      6.69554        -0.013459     -0.007770     -0.012511
     -2.08415      6.01641      4.01733        -0.013459      0.007770      0.012511
      6.25244      1.20328      6.69554         0.013459     -0.007770     -0.012511
     -0.00000      2.40656      4.01733         0.000000     -0.015541      0.012511
      4.16829      4.81313      6.69554         0.000000      0.015541     -0.012511
      4.16829      4.81313      1.33911         0.000000      0.022322     -0.007221
     -0.00000      2.40656      9.37376         0.000000     -0.022322      0.007221
      2.08415      1.20328      1.33911        -0.019332     -0.011161     -0.007221
      2.08415      6.01641      9.37376         0.019332      0.011161      0.007221
      6.25244      1.20328      1.33911         0.019332     -0.011161     -0.007221
     -2.08415      6.01641      9.37376        -0.019332      0.011161      0.007221
      0.00000      4.81313      1.33911         0.000000     -0.000000     -0.004413
      4.16829      2.40656      9.37376         0.000000     -0.000000      0.004413
      4.16829      2.40656      4.01733        -0.000000     -0.000000      0.020195
      0.00000      4.81313      6.69554         0.000000     -0.000000     -0.020195
      2.08415      6.01641      1.33911         0.009182      0.005301     -0.013322
      2.08415      1.20328      9.37376        -0.009182     -0.005301      0.013322
     -2.08415      6.01641      1.33911        -0.009182      0.005301     -0.013322
      6.25244      1.20328      9.37376         0.009182     -0.005301      0.013322
     -0.00000      2.40656      1.33911        -0.000000     -0.010603     -0.013322
      4.16829      4.81313      9.37376         0.000000      0.010603      0.013322
      4.16829      4.81313      4.01733        -0.000000      0.085760      0.067568
     -0.00000      2.40656      6.69554         0.000000     -0.085760     -0.067568
      2.08415      1.20328      4.01733        -0.074271     -0.042880      0.067568
      2.08415      6.01641      6.69554         0.074271      0.042880     -0.067568
      6.25244      1.20328      4.01733         0.074271     -0.042880      0.067568
     -2.08415      6.01641      6.69554        -0.074271      0.042880     -0.067568
      0.00000      4.81313      4.01733        -0.000000     -0.000000     -0.001098
      4.16829      2.40656      6.69554         0.000000     -0.000000      0.001098
      4.16829      2.40656      1.33911        -0.000000     -0.000000      0.020071
      0.00000      4.81313      9.37376        -0.000000     -0.000000     -0.020071
      2.08415      3.60985      0.00000         0.000000     -0.000000      0.000000
      4.16829      0.00000      0.00000         0.000000     -0.000000      0.000000
     -2.08415      3.60985      0.00000         0.000000     -0.000000      0.000000
      2.08415      3.60985      2.67822         0.005269     -0.003042      0.005620
      2.08415      3.60985      8.03465        -0.005269      0.003042     -0.005620
      4.16829      0.00000      2.67822         0.000000      0.006084      0.005620
      4.16829      0.00000      8.03465        -0.000000     -0.006084     -0.005620
     -2.08415      3.60985      2.67822        -0.005269     -0.003042      0.005620
     -2.08415      3.60985      8.03465         0.005269      0.003042     -0.005620
      0.00000      0.00000      0.00000         0.000000     -0.000000      0.000000
      0.00000      0.00000      2.67822        -0.000000     -0.000000      0.244402
      0.00000      0.00000      8.03465         0.000000     -0.000000     -0.244402
      2.08415      3.60985      5.35644        -0.000000     -0.000000      0.000000
      4.16829      0.00000      5.35644         0.000000     -0.000000      0.000000
     -2.08415      3.60985      5.35644         0.000000     -0.000000      0.000000
      0.00000      0.00000      5.35644         0.000000     -0.000000      0.000000
 -----------------------------------------------------------------------------------
    total drift:                               -0.000004      0.000002     -0.000000


--------------------------------------------------------------------------------------------------------



  FREE ENERGIE OF THE ION-ELECTRON SYSTEM (eV)
  ---------------------------------------------------
  free  energy   TOTEN  =      -312.35925147 eV

  energy  without entropy=     -312.33297293  energy(sigma->0) =     -312.35049196
 


--------------------------------------------------------------------------------------------------------


    POTLOK:  cpu time    0.2270: real time    0.2541


--------------------------------------------------------------------------------------------------------


     LOOP+:  cpu time16086.7564: real time16154.6186
    4ORBIT:  cpu time    0.0010: real time    0.0000
 


 total charge     
 
# of ion       s       p       d       tot
------------------------------------------
    1        0.449   0.470   8.426   9.345
    2        0.449   0.470   8.426   9.345
    3        0.449   0.470   8.426   9.345
    4        0.449   0.470   8.426   9.345
    5        0.449   0.470   8.426   9.345
    6        0.449   0.470   8.426   9.345
    7        0.450   0.472   8.427   9.349
    8        0.450   0.472   8.427   9.349
    9        0.450   0.472   8.427   9.349
   10        0.450   0.472   8.427   9.349
   11        0.450   0.472   8.427   9.349
   12        0.450   0.472   8.427   9.349
   13        0.450   0.473   8.425   9.349
   14        0.450   0.473   8.425   9.349
   15        0.450   0.471   8.428   9.350
   16        0.450   0.471   8.428   9.350
   17        1.088   1.218   0.107   2.413
   18        1.088   1.218   0.107   2.413
   19        1.088   1.218   0.107   2.413
   20        1.088   1.218   0.107   2.413
   21        1.088   1.218   0.107   2.413
   22        1.088   1.218   0.107   2.413
   23        1.088   1.214   0.107   2.409
   24        1.088   1.214   0.107   2.409
   25        1.088   1.214   0.107   2.409
   26        1.088   1.214   0.107   2.409
   27        1.088   1.214   0.107   2.409
   28        1.088   1.214   0.107   2.409
   29        1.089   1.218   0.107   2.413
   30        1.089   1.218   0.107   2.413
   31        1.087   1.220   0.107   2.414
   32        1.087   1.220   0.107   2.414
   33        0.269   0.294   5.049   5.612
   34        0.269   0.294   5.049   5.612
   35        0.269   0.294   5.049   5.612
   36        0.269   0.294   5.049   5.612
   37        0.269   0.294   5.049   5.612
   38        0.269   0.294   5.049   5.612
   39        0.269   0.294   5.049   5.612
   40        0.269   0.294   5.049   5.612
   41        0.269   0.294   5.049   5.612
   42        0.269   0.292   5.058   5.619
   43        0.268   0.297   5.035   5.600
   44        0.268   0.297   5.035   5.600
   45        0.270   0.294   5.048   5.612
   46        0.270   0.294   5.048   5.612
   47        0.270   0.294   5.048   5.612
   48        0.341   0.382   6.224   6.947
--------------------------------------------------
tot         28.978  31.808 218.473 279.259
 


 magnetization (x)
 
# of ion       s       p       d       tot
------------------------------------------
    1       -0.021  -0.032   0.182   0.129
    2       -0.021  -0.032   0.182   0.129
    3       -0.021  -0.032   0.182   0.129
    4       -0.021  -0.032   0.182   0.129
    5       -0.021  -0.032   0.182   0.129
    6       -0.021  -0.032   0.182   0.129
    7       -0.023  -0.032   0.182   0.128
    8       -0.023  -0.032   0.182   0.128
    9       -0.023  -0.032   0.182   0.128
   10       -0.023  -0.032   0.182   0.128
   11       -0.023  -0.032   0.182   0.128
   12       -0.023  -0.032   0.182   0.128
   13       -0.024  -0.032   0.190   0.134
   14       -0.024  -0.032   0.190   0.134
   15       -0.021  -0.030   0.184   0.133
   16       -0.021  -0.030   0.184   0.133
   17       -0.014  -0.093   0.004  -0.103
   18       -0.014  -0.093   0.004  -0.103
   19       -0.014  -0.093   0.004  -0.103
   20       -0.014  -0.093   0.004  -0.103
   21       -0.014  -0.093   0.004  -0.103
   22       -0.014  -0.093   0.004  -0.103
   23       -0.013  -0.088   0.003  -0.098
   24       -0.013  -0.088   0.003  -0.098
   25       -0.013  -0.088   0.003  -0.098
   26       -0.013  -0.088   0.003  -0.098
   27       -0.013  -0.088   0.003  -0.098
   28       -0.013  -0.088   0.003  -0.098
   29       -0.013  -0.093   0.004  -0.102
   30       -0.013  -0.093   0.004  -0.102
   31       -0.015  -0.096   0.004  -0.107
   32       -0.015  -0.096   0.004  -0.107
   33        0.021   0.021   3.107   3.149
   34        0.021   0.021   3.107   3.149
   35        0.021   0.021   3.107   3.149
   36        0.021   0.021   3.110   3.151
   37        0.021   0.021   3.110   3.151
   38        0.021   0.021   3.110   3.151
   39        0.021   0.021   3.110   3.151
   40        0.021   0.021   3.110   3.151
   41        0.021   0.021   3.110   3.151
   42        0.020   0.021   3.061   3.102
   43        0.022   0.020   3.184   3.226
   44        0.022   0.020   3.184   3.226
   45        0.020   0.022   3.108   3.150
   46        0.020   0.022   3.108   3.150
   47        0.020   0.022   3.108   3.150
   48        0.015   0.010   2.505   2.530
--------------------------------------------------
tot         -0.246  -1.646  52.227  50.334
 

 total amount of memory used by VASP MPI-rank0   636868. kBytes
=======================================================================

   base      :      30000. kBytes
   nonl-proj :      95122. kBytes
   fftplans  :       4707. kBytes
   grid      :      13171. kBytes
   one-center:        248. kBytes
   wavefun   :     493620. kBytes
 
  
  
 General timing and accounting informations for this job:
 ========================================================
  
                  Total CPU time used (sec):    16357.943
                            User time (sec):    16205.606
                          System time (sec):      152.337
                         Elapsed time (sec):    16434.641
  
                   Maximum memory used (kb):      893836.
                   Average memory used (kb):           0.
  
                          Minor page faults:        77378
                          Major page faults:          738
                 Voluntary context switches:         7746
