 running on   24 total cores
 distrk:  each k-point on   24 cores,    1 groups
 distr:  one band on    6 cores,    4 groups
 using from now: INCAR     
 vasp.6.1.1 19Jun20 (build Nov 30 2020 11:51:22) complex                        
  
 POSCAR found type information on POSCAR MnNiGeFe
 POSCAR found :  4 types and      48 ions
 scaLAPACK will be used
 -----------------------------------------------------------------------------
|                                                                             |
|               ----> ADVICE to this user running VASP <----                  |
|                                                                             |
|     You have a (more or less) 'large supercell' and for larger cells it     |
|     might be more efficient to use real-space projection operators.         |
|     Therefore, try LREAL= Auto in the INCAR file.                           |
|     Mind: For very accurate calculation, you might also keep the            |
|     reciprocal projection scheme (i.e. LREAL=.FALSE.).                      |
|                                                                             |
 -----------------------------------------------------------------------------

 LDA part: xc-table for Pade appr. of Perdew
 POSCAR, INCAR and KPOINTS ok, starting setup
 FFT: planning ...
 WAVECAR not read
 entering main loop
       N       E                     dE             d eps       ncg     rms          rms(c)
DAV:   1     0.278362303251E+04    0.27836E+04   -0.10953E+05 86400   0.104E+03
DAV:   2     0.164836855712E+03   -0.26188E+04   -0.23338E+04 86400   0.264E+02
DAV:   3    -0.270001924147E+03   -0.43484E+03   -0.35919E+03 86528   0.123E+02
DAV:   4    -0.300714893453E+03   -0.30713E+02   -0.29491E+02106400   0.387E+01
DAV:   5    -0.301503210093E+03   -0.78832E+00   -0.78664E+00104000   0.643E+00    0.101E+02
DAV:   6    -0.384866245419E+03   -0.83363E+02   -0.24017E+02109136   0.112E+02    0.118E+02
DAV:   7    -0.304905150805E+03    0.79961E+02   -0.18344E+02106200   0.876E+01    0.682E+01
DAV:   8    -0.336026336753E+03   -0.31121E+02   -0.54288E+01117488   0.528E+01    0.937E+01
DAV:   9    -0.318205180855E+03    0.17821E+02   -0.42272E+01123960   0.404E+01    0.486E+01
DAV:  10    -0.319668067595E+03   -0.14629E+01   -0.37224E+01117496   0.570E+01    0.683E+01
DAV:  11    -0.300782417143E+03    0.18886E+02   -0.17954E+01135744   0.423E+01    0.286E+01
DAV:  12    -0.309798328069E+03   -0.90159E+01   -0.94285E+00124248   0.293E+01    0.339E+01
DAV:  13    -0.308302317341E+03    0.14960E+01   -0.59832E+00126064   0.251E+01    0.152E+01
DAV:  14    -0.315016644043E+03   -0.67143E+01   -0.49243E+00134648   0.222E+01    0.275E+01
DAV:  15    -0.312870569269E+03    0.21461E+01   -0.50087E+00123016   0.182E+01    0.926E+00
DAV:  16    -0.313110510815E+03   -0.23994E+00   -0.12421E+00126480   0.894E+00    0.787E+00
DAV:  17    -0.313062613616E+03    0.47897E-01   -0.68364E-01114352   0.645E+00    0.488E+00
DAV:  18    -0.313246495571E+03   -0.18388E+00   -0.34054E-01118128   0.414E+00    0.472E+00
DAV:  19    -0.313227756457E+03    0.18739E-01   -0.18821E-01115104   0.448E+00    0.323E+00
DAV:  20    -0.313189460386E+03    0.38296E-01   -0.96691E-02126512   0.291E+00    0.157E+00
DAV:  21    -0.313194478556E+03   -0.50182E-02   -0.58726E-02119984   0.133E+00    0.120E+00
DAV:  22    -0.313197425089E+03   -0.29465E-02   -0.17392E-02115280   0.108E+00    0.117E+00
DAV:  23    -0.313202768278E+03   -0.53432E-02   -0.70687E-03124960   0.584E-01    0.131E+00
DAV:  24    -0.313204266436E+03   -0.14982E-02   -0.29565E-03138288   0.423E-01    0.128E+00
DAV:  25    -0.313201875277E+03    0.23912E-02   -0.22537E-03128208   0.439E-01    0.101E+00
DAV:  26    -0.313199191766E+03    0.26835E-02   -0.22181E-03130816   0.412E-01    0.555E-01
DAV:  27    -0.313199951201E+03   -0.75944E-03   -0.12871E-03137976   0.291E-01    0.488E-01
DAV:  28    -0.313199978440E+03   -0.27238E-04   -0.45564E-04118640   0.191E-01    0.391E-01
DAV:  29    -0.313199864250E+03    0.11419E-03   -0.19471E-04126352   0.860E-02    0.281E-01
DAV:  30    -0.313199864414E+03   -0.16398E-06   -0.11139E-04126744   0.959E-02    0.224E-01
DAV:  31    -0.313199898456E+03   -0.34042E-04   -0.80537E-05150272   0.565E-02    0.132E-01
DAV:  32    -0.313199934853E+03   -0.36397E-04   -0.45499E-05148960   0.383E-02    0.944E-02
DAV:  33    -0.313199945318E+03   -0.10464E-04   -0.16769E-05117824   0.373E-02    0.715E-02
DAV:  34    -0.313199944014E+03    0.13042E-05   -0.12586E-05110432   0.149E-02    0.434E-02
DAV:  35    -0.313199946652E+03   -0.26382E-05   -0.41216E-06 89552   0.124E-02    0.273E-02
DAV:  36    -0.313199947887E+03   -0.12352E-05   -0.21501E-06 74832   0.124E-02    0.175E-02
DAV:  37    -0.313199948604E+03   -0.71698E-06   -0.20567E-06 59128   0.609E-03
   1 F= -.31319995E+03 E0= -.31322294E+03  d E =0.689617E-01  mag=    46.9605
