 running on   24 total cores
 distrk:  each k-point on   24 cores,    1 groups
 distr:  one band on    6 cores,    4 groups
 using from now: INCAR     
 vasp.6.1.1 19Jun20 (build Nov 30 2020 11:51:22) complex                        
  
 POSCAR found type information on POSCAR NiGeMnFe
 POSCAR found :  4 types and      48 ions
 scaLAPACK will be used
 -----------------------------------------------------------------------------
|                                                                             |
|               ----> ADVICE to this user running VASP <----                  |
|                                                                             |
|     You have a (more or less) 'large supercell' and for larger cells it     |
|     might be more efficient to use real-space projection operators.         |
|     Therefore, try LREAL= Auto in the INCAR file.                           |
|     Mind: For very accurate calculation, you might also keep the            |
|     reciprocal projection scheme (i.e. LREAL=.FALSE.).                      |
|                                                                             |
 -----------------------------------------------------------------------------

 LDA part: xc-table for Pade appr. of Perdew
 POSCAR, INCAR and KPOINTS ok, starting setup
 FFT: planning ...
 WAVECAR not read
 entering main loop
       N       E                     dE             d eps       ncg     rms          rms(c)
DAV:   1     0.284770059303E+04    0.28477E+04   -0.10802E+05 99360   0.105E+03
DAV:   2     0.186032934166E+03   -0.26617E+04   -0.23713E+04 99360   0.269E+02
DAV:   3    -0.260528193143E+03   -0.44656E+03   -0.36749E+03 99464   0.125E+02
DAV:   4    -0.292985680285E+03   -0.32457E+02   -0.31014E+02121464   0.400E+01
DAV:   5    -0.293821328131E+03   -0.83565E+00   -0.83368E+00121568   0.666E+00    0.104E+02
DAV:   6    -0.371225607971E+03   -0.77404E+02   -0.21203E+02125384   0.103E+02    0.108E+02
DAV:   7    -0.318294876836E+03    0.52931E+02   -0.18521E+02121904   0.955E+01    0.727E+01
DAV:   8    -0.332720347060E+03   -0.14425E+02   -0.37231E+01136800   0.577E+01    0.769E+01
DAV:   9    -0.316675174083E+03    0.16045E+02   -0.32860E+01140944   0.458E+01    0.444E+01
DAV:  10    -0.320585747158E+03   -0.39106E+01   -0.24433E+01133168   0.471E+01    0.575E+01
DAV:  11    -0.306948042025E+03    0.13638E+02   -0.15116E+01147568   0.325E+01    0.239E+01
DAV:  12    -0.313941327007E+03   -0.69933E+01   -0.91926E+00141816   0.217E+01    0.284E+01
DAV:  13    -0.310823577920E+03    0.31177E+01   -0.53356E+00140400   0.214E+01    0.128E+01
DAV:  14    -0.313306260997E+03   -0.24827E+01   -0.27756E+00167464   0.134E+01    0.216E+01
DAV:  15    -0.312729470424E+03    0.57679E+00   -0.31168E+00147816   0.129E+01    0.862E+00
DAV:  16    -0.312854894301E+03   -0.12542E+00   -0.79571E-01150304   0.682E+00    0.668E+00
DAV:  17    -0.312790206219E+03    0.64688E-01   -0.40241E-01123600   0.555E+00    0.489E+00
DAV:  18    -0.312827279993E+03   -0.37074E-01   -0.18441E-01163696   0.248E+00    0.307E+00
DAV:  19    -0.312879872778E+03   -0.52593E-01   -0.74974E-02155464   0.141E+00    0.338E+00
DAV:  20    -0.312884992568E+03   -0.51198E-02   -0.25481E-02126968   0.118E+00    0.292E+00
DAV:  21    -0.312925815596E+03   -0.40823E-01   -0.23360E-02164312   0.117E+00    0.269E+00
DAV:  22    -0.312968117165E+03   -0.42302E-01   -0.52628E-02142816   0.212E+00    0.322E+00
DAV:  23    -0.312928180563E+03    0.39937E-01   -0.27065E-02151552   0.148E+00    0.170E+00
DAV:  24    -0.312927164333E+03    0.10162E-02   -0.19532E-02145640   0.101E+00    0.132E+00
DAV:  25    -0.312919757720E+03    0.74066E-02   -0.89755E-03129760   0.751E-01    0.485E-01
DAV:  26    -0.312920438360E+03   -0.68064E-03   -0.17248E-03152152   0.358E-01    0.401E-01
DAV:  27    -0.312920167532E+03    0.27083E-03   -0.14388E-03127760   0.388E-01    0.185E-01
DAV:  28    -0.312920329507E+03   -0.16198E-03   -0.89461E-04164288   0.152E-01    0.152E-01
DAV:  29    -0.312920263064E+03    0.66443E-04   -0.25795E-04153096   0.734E-02    0.800E-02
DAV:  30    -0.312920298973E+03   -0.35909E-04   -0.16748E-04126888   0.782E-02    0.342E-02
DAV:  31    -0.312920295539E+03    0.34331E-05   -0.30694E-05134856   0.222E-02    0.279E-02
DAV:  32    -0.312920298104E+03   -0.25644E-05   -0.10473E-05 98880   0.129E-02    0.218E-02
DAV:  33    -0.312920296908E+03    0.11955E-05   -0.12986E-06 60712   0.518E-03    0.143E-02
DAV:  34    -0.312920298196E+03   -0.12873E-05   -0.27457E-06 84648   0.112E-02    0.431E-03
DAV:  35    -0.312920298045E+03    0.15054E-06   -0.75349E-07 61744   0.290E-03
   1 F= -.31292030E+03 E0= -.31291223E+03  d E =-.241913E-01  mag=    44.4254
