 vasp.6.1.1 19Jun20 (build Nov 30 2020 11:51:22) complex                        
  
 executed on             LinuxIFC date 2021.03.23  21:56:38
 running on   24 total cores
 distrk:  each k-point on   24 cores,    1 groups
 distr:  one band on NCORE=   6 cores,    4 groups


--------------------------------------------------------------------------------------------------------


 INCAR:
 POTCAR:    PAW_PBE Ni 02Aug2007                  
 POTCAR:    PAW_PBE Ge 05Jan2001                  
 POTCAR:    PAW_PBE Mn 06Sep2000                  
 POTCAR:    PAW_PBE Fe 06Sep2000                  
 POTCAR:    PAW_PBE Ni 02Aug2007                  
   SHA256 =  0534bc51ca8003dfef23f56753fef9fdd3e22eac8d719fccacb59f3e6b7a69c7 Ni/POTCAR             
   COPYR  = (c) Copyright 02Aug2007 Georg Kresse                                                    
   COPYR  = This file is part of the software VASP. Any use, copying, and all other rights are regul
   COPYR  = If you do not have a valid VASP license, you may not use, copy or distribute this file. 
   VRHFIN =Ni:                                                                                      
   LEXCH  = PE                                                                                      
   EATOM  =  1077.6739 eV,   79.2068 Ry                                                             
                                                                                                    
   TITEL  = PAW_PBE Ni 02Aug2007                                                                    
   LULTRA =        F    use ultrasoft PP ?                                                          
   IUNSCR =        1    unscreen: 0-lin 1-nonlin 2-no                                               
   RPACOR =    2.000    partial core radius                                                         
   POMASS =   58.690; ZVAL   =   10.000    mass and valenz                                          
   RCORE  =    2.300    outmost cutoff radius                                                       
   RWIGS  =    2.430; RWIGS  =    1.286    wigner-seitz radius (au A)                               
   ENMAX  =  269.532; ENMIN  =  202.149 eV                                                          
   RCLOC  =    1.201    cutoff for local pot                                                        
   LCOR   =        T    correct aug charges                                                         
   LPAW   =        T    paw PP                                                                      
   EAUG   =  544.565                                                                                
   DEXC   =    0.000                                                                                
   RMAX   =    2.357    core radius for proj-oper                                                   
   RAUG   =    1.300    factor for augmentation sphere                                              
   RDEP   =    2.390    radius for radial grids                                                     
   RDEPT  =    1.838    core radius for aug-charge                                                  
                                                                                                    
   Atomic configuration                                                                             
    9 entries                                                                                       
     n  l   j            E        occ.                                                              
     1  0  0.50     -8206.4253   2.0000                                                             
     2  0  0.50      -976.1748   2.0000                                                             
     2  1  1.50      -839.0571   6.0000                                                             
     3  0  0.50      -105.9991   2.0000                                                             
     3  1  1.50       -66.4603   6.0000                                                             
     3  2  2.50        -4.6458   9.0000                                                             
     4  0  0.50        -4.4926   1.0000                                                             
     4  1  1.50        -4.0817   0.0000                                                             
     4  3  2.50        -1.3606   0.0000                                                             
   Description                                                                                      
     l       E           TYP  RCUT    TYP  RCUT                                                     
     2     -4.6457903     23  2.300                                                                 
     2     -6.0063729     23  2.300                                                                 
     0     -4.4925590     23  2.300                                                                 
     0      5.0102601     23  2.300                                                                 
     1     -2.7211652     23  2.300                                                                 
     1     16.5183231     23  2.300                                                                 
  local pseudopotential read in
  partial core-charges read in
  partial kinetic energy density read in
  atomic valenz-charges read in
  non local Contribution for L=           2  read in
    real space projection operators read in
  non local Contribution for L=           2  read in
    real space projection operators read in
  non local Contribution for L=           0  read in
    real space projection operators read in
  non local Contribution for L=           0  read in
    real space projection operators read in
  non local Contribution for L=           1  read in
    real space projection operators read in
  non local Contribution for L=           1  read in
    real space projection operators read in
    PAW grid and wavefunctions read in
 
   number of l-projection  operators is LMAX  =           6
   number of lm-projection operators is LMMAX =          18
 
 POTCAR:    PAW_PBE Ge 05Jan2001                  
   SHA256 =  7ff11deedcda39f1950abeda971a84a1f98a719a97bc9679a0df455c008734f8 Ge/POTCAR             
   COPYR  = (c) Copyright 05Jan2001 Georg Kresse                                                    
   COPYR  = This file is part of the software VASP. Any use, copying, and all other rights are regul
   COPYR  = If you do not have a valid VASP license, you may not use, copy or distribute this file. 
   VRHFIN =Ge: s2p2                                                                                 
   LEXCH  = PE                                                                                      
   EATOM  =   104.9960 eV,    7.7170 Ry                                                             
                                                                                                    
   TITEL  = PAW_PBE Ge 05Jan2001                                                                    
   LULTRA =        F    use ultrasoft PP ?                                                          
   IUNSCR =        1    unscreen: 0-lin 1-nonlin 2-no                                               
   RPACOR =    2.170    partial core radius                                                         
   POMASS =   72.610; ZVAL   =    4.000    mass and valenz                                          
   RCORE  =    2.300    outmost cutoff radius                                                       
   RWIGS  =    2.300; RWIGS  =    1.217    wigner-seitz radius (au A)                               
   ENMAX  =  173.807; ENMIN  =  130.355 eV                                                          
   ICORE  =        3    local potential                                                             
   LCOR   =        T    correct aug charges                                                         
   LPAW   =        T    paw PP                                                                      
   EAUG   =  385.843                                                                                
   DEXC   =    0.000                                                                                
   RMAX   =    2.342    core radius for proj-oper                                                   
   RAUG   =    1.300    factor for augmentation sphere                                              
   RDEP   =    2.318    radius for radial grids                                                     
   RDEPT  =    2.103    core radius for aug-charge                                                  
                                                                                                    
   Atomic configuration                                                                             
   10 entries                                                                                       
     n  l   j            E        occ.                                                              
     1  0  0.50    -10959.8463   2.0000                                                             
     2  0  0.50     -1371.6056   2.0000                                                             
     2  1  1.50     -1198.4791   6.0000                                                             
     3  0  0.50      -168.4733   2.0000                                                             
     3  1  1.50      -115.6019   6.0000                                                             
     3  2  2.50       -29.3106  10.0000                                                             
     4  0  0.50       -11.7309   2.0000                                                             
     4  1  0.50        -3.8952   2.0000                                                             
     4  2  1.50        -4.0817   0.0000                                                             
     4  3  2.50        -4.0817   0.0000                                                             
   Description                                                                                      
     l       E           TYP  RCUT    TYP  RCUT                                                     
     0    -11.7309493     23  2.300                                                                 
     0     -7.4578696     23  2.300                                                                 
     1     -3.8952261     23  2.300                                                                 
     1      6.1178114     23  2.300                                                                 
     2     -4.0817478     23  2.300                                                                 
     3     -1.3605826      7  2.300                                                                 
  local pseudopotential read in
  partial core-charges read in
  partial kinetic energy density read in
  atomic valenz-charges read in
  non local Contribution for L=           0  read in
    real space projection operators read in
  non local Contribution for L=           0  read in
    real space projection operators read in
  non local Contribution for L=           1  read in
    real space projection operators read in
  non local Contribution for L=           1  read in
    real space projection operators read in
  non local Contribution for L=           2  read in
    real space projection operators read in
    PAW grid and wavefunctions read in
 
   number of l-projection  operators is LMAX  =           5
   number of lm-projection operators is LMMAX =          13
 
 POTCAR:    PAW_PBE Mn 06Sep2000                  
   SHA256 =  791c87526310ff945dc83749a51ee60ee299d345ff72743aeb14609b9ed68bfc Mn/POTCAR             
   COPYR  = (c) Copyright 06Sep2000 Georg Kresse                                                    
   COPYR  = This file is part of the software VASP. Any use, copying, and all other rights are regul
   COPYR  = If you do not have a valid VASP license, you may not use, copy or distribute this file. 
   VRHFIN =Mn: d6 s1                                                                                
   LEXCH  = PE                                                                                      
   EATOM  =   416.7541 eV,   30.6306 Ry                                                             
                                                                                                    
   TITEL  = PAW_PBE Mn 06Sep2000                                                                    
   LULTRA =        F    use ultrasoft PP ?                                                          
   IUNSCR =        1    unscreen: 0-lin 1-nonlin 2-no                                               
   RPACOR =    2.000    partial core radius                                                         
   POMASS =   54.938; ZVAL   =    7.000    mass and valenz                                          
   RCORE  =    2.300    outmost cutoff radius                                                       
   RWIGS  =    2.500; RWIGS  =    1.323    wigner-seitz radius (au A)                               
   ENMAX  =  269.864; ENMIN  =  202.398 eV                                                          
   RCLOC  =    1.725    cutoff for local pot                                                        
   LCOR   =        T    correct aug charges                                                         
   LPAW   =        T    paw PP                                                                      
   EAUG   =  500.711                                                                                
   DEXC   =    0.000                                                                                
   RMAX   =    2.343    core radius for proj-oper                                                   
   RAUG   =    1.300    factor for augmentation sphere                                              
   RDEP   =    2.338    radius for radial grids                                                     
   RDEPT  =    1.911    core radius for aug-charge                                                  
                                                                                                    
   Atomic configuration                                                                             
    9 entries                                                                                       
     n  l   j            E        occ.                                                              
     1  0  0.50     -6424.8288   2.0000                                                             
     2  0  0.50      -739.1154   2.0000                                                             
     2  1  1.50      -625.3949   6.0000                                                             
     3  0  0.50       -81.6100   2.0000                                                             
     3  1  1.50       -50.4667   6.0000                                                             
     3  2  2.50        -3.3745   6.0000                                                             
     4  0  0.50        -4.1331   1.0000                                                             
     4  1  0.50        -4.0817   0.0000                                                             
     4  3  2.50        -1.3606   0.0000                                                             
   Description                                                                                      
     l       E           TYP  RCUT    TYP  RCUT                                                     
     2     -3.3744664     23  2.300                                                                 
     2     -4.7350490     23  2.300                                                                 
     0     -4.1331408     23  2.300                                                                 
     0      7.6656614     23  2.300                                                                 
     1     -2.7211652     23  2.300                                                                 
     1     20.4087390     23  2.300                                                                 
  local pseudopotential read in
  partial core-charges read in
  partial kinetic energy density read in
  atomic valenz-charges read in
  non local Contribution for L=           2  read in
    real space projection operators read in
  non local Contribution for L=           2  read in
    real space projection operators read in
  non local Contribution for L=           0  read in
    real space projection operators read in
  non local Contribution for L=           0  read in
    real space projection operators read in
  non local Contribution for L=           1  read in
    real space projection operators read in
  non local Contribution for L=           1  read in
    real space projection operators read in
    PAW grid and wavefunctions read in
 
   number of l-projection  operators is LMAX  =           6
   number of lm-projection operators is LMMAX =          18
 
 POTCAR:    PAW_PBE Fe 06Sep2000                  
   SHA256 =  cd5a22d9368cc8b5cc476bea79732366149640da08ac9009b0e1b7fc627eea28 Fe/POTCAR             
   COPYR  = (c) Copyright 06Sep2000 Georg Kresse                                                    
   COPYR  = This file is part of the software VASP. Any use, copying, and all other rights are regul
   COPYR  = If you do not have a valid VASP license, you may not use, copy or distribute this file. 
   VRHFIN =Fe:  d7 s1                                                                               
   LEXCH  = PE                                                                                      
   EATOM  =   594.3153 eV,   43.6809 Ry                                                             
                                                                                                    
   TITEL  = PAW_PBE Fe 06Sep2000                                                                    
   LULTRA =        F    use ultrasoft PP ?                                                          
   IUNSCR =        1    unscreen: 0-lin 1-nonlin 2-no                                               
   RPACOR =    2.000    partial core radius                                                         
   POMASS =   55.847; ZVAL   =    8.000    mass and valenz                                          
   RCORE  =    2.300    outmost cutoff radius                                                       
   RWIGS  =    2.460; RWIGS  =    1.302    wigner-seitz radius (au A)                               
   ENMAX  =  267.882; ENMIN  =  200.911 eV                                                          
   RCLOC  =    1.701    cutoff for local pot                                                        
   LCOR   =        T    correct aug charges                                                         
   LPAW   =        T    paw PP                                                                      
   EAUG   =  511.368                                                                                
   DEXC   =    0.000                                                                                
   RMAX   =    2.356    core radius for proj-oper                                                   
   RAUG   =    1.300    factor for augmentation sphere                                              
   RDEP   =    2.442    radius for radial grids                                                     
   RDEPT  =    1.890    core radius for aug-charge                                                  
                                                                                                    
   Atomic configuration                                                                             
    9 entries                                                                                       
     n  l   j            E        occ.                                                              
     1  0  0.50     -6993.8440   2.0000                                                             
     2  0  0.50      -814.6047   2.0000                                                             
     2  1  1.50      -693.3689   6.0000                                                             
     3  0  0.50       -89.4732   2.0000                                                             
     3  1  1.50       -55.6373   6.0000                                                             
     3  2  2.50        -3.8151   7.0000                                                             
     4  0  0.50        -4.2551   1.0000                                                             
     4  1  1.50        -3.4015   0.0000                                                             
     4  3  2.50        -1.3606   0.0000                                                             
   Description                                                                                      
     l       E           TYP  RCUT    TYP  RCUT                                                     
     2     -3.8151135     23  2.300                                                                 
     2     -5.1756961     23  2.300                                                                 
     0     -4.2550963     23  2.300                                                                 
     0      7.2035603     23  2.300                                                                 
     1     -2.7211652     23  2.300                                                                 
     1     18.4316424     23  2.300                                                                 
  local pseudopotential read in
  partial core-charges read in
  partial kinetic energy density read in
  atomic valenz-charges read in
  non local Contribution for L=           2  read in
    real space projection operators read in
  non local Contribution for L=           2  read in
    real space projection operators read in
  non local Contribution for L=           0  read in
    real space projection operators read in
  non local Contribution for L=           0  read in
    real space projection operators read in
  non local Contribution for L=           1  read in
    real space projection operators read in
  non local Contribution for L=           1  read in
    real space projection operators read in
    PAW grid and wavefunctions read in
 
   number of l-projection  operators is LMAX  =           6
   number of lm-projection operators is LMMAX =          18
 
 -----------------------------------------------------------------------------
|                                                                             |
|               ----> ADVICE to this user running VASP <----                  |
|                                                                             |
|     You have a (more or less) 'large supercell' and for larger cells it     |
|     might be more efficient to use real-space projection operators.         |
|     Therefore, try LREAL= Auto in the INCAR file.                           |
|     Mind: For very accurate calculation, you might also keep the            |
|     reciprocal projection scheme (i.e. LREAL=.FALSE.).                      |
|                                                                             |
 -----------------------------------------------------------------------------

  PAW_PBE Ni 02Aug2007                  :
 energy of atom  1       EATOM=-1077.6739
 kinetic energy error for atom=    0.0038 (will be added to EATOM!!)
  PAW_PBE Ge 05Jan2001                  :
 energy of atom  2       EATOM= -104.9960
 kinetic energy error for atom=    0.0003 (will be added to EATOM!!)
  PAW_PBE Mn 06Sep2000                  :
 energy of atom  3       EATOM= -416.7541
 kinetic energy error for atom=    0.0033 (will be added to EATOM!!)
  PAW_PBE Fe 06Sep2000                  :
 energy of atom  4       EATOM= -594.3153
 kinetic energy error for atom=    0.0034 (will be added to EATOM!!)
 
 
 POSCAR: MnFeNiGe_hex
  positions in direct lattice
  velocities in cartesian coordinates
 exchange correlation table for  LEXCH =        8
   RHO(1)=    0.500       N(1)  =     2000
   RHO(2)=  100.500       N(2)  =     4000
 


--------------------------------------------------------------------------------------------------------


 ion  position               nearest neighbor table
   1  0.667  0.833  0.375-  27 2.34  29 2.34  23 2.34  17 2.60  26 2.60  36 2.67  45 2.67  38 2.67
                            46 2.67  43 2.67  48 2.67
   2  0.333  0.167  0.625-  28 2.34  30 2.34  24 2.34  25 2.60  18 2.60  39 2.67  44 2.67  46 2.67
                            48 2.67  37 2.67  45 2.67
   3  0.167  0.833  0.375-  25 2.34  23 2.34  29 2.34  28 2.60  19 2.60  40 2.67  47 2.67  43 2.67
                            48 2.67  38 2.67  46 2.67
   4  0.833  0.167  0.625-  26 2.34  24 2.34  30 2.34  27 2.60  20 2.60  39 2.67  44 2.67  46 2.67
                            48 2.67  47 2.67  41 2.67
   5  0.167  0.333  0.375-  29 2.34  27 2.34  25 2.34  24 2.60  21 2.60  43 2.67  48 2.67  47 2.67
                            40 2.67  36 2.67  45 2.67
   6  0.833  0.667  0.625-  30 2.34  28 2.34  26 2.34  23 2.60  22 2.60  37 2.67  41 2.67  45 2.67
                            47 2.67  44 2.67  48 2.67
   7  0.833  0.667  0.125-  31 2.34  19 2.34  17 2.34  23 2.60  22 2.60  33 2.67  35 2.67  36 2.67
                            40 2.67  42 2.67  43 2.67
   8  0.167  0.333  0.875-  18 2.34  32 2.34  20 2.34  24 2.60  21 2.60  42 2.67  44 2.67  35 2.67
                            41 2.67  37 2.67  33 2.67
   9  0.333  0.167  0.125-  19 2.34  31 2.34  21 2.34  25 2.60  18 2.60  34 2.67  38 2.67  42 2.67
                            43 2.67  36 2.67  33 2.67
  10  0.667  0.833  0.875-  20 2.34  32 2.34  22 2.34  26 2.60  17 2.60  33 2.67  37 2.67  34 2.67
                            39 2.67  42 2.67  44 2.67
  11  0.833  0.167  0.125-  17 2.34  21 2.34  31 2.34  27 2.60  20 2.60  34 2.67  38 2.67  42 2.67
                            43 2.67  35 2.67  40 2.67
  12  0.167  0.833  0.875-  18 2.34  22 2.34  32 2.34  28 2.60  19 2.60  35 2.67  41 2.67  42 2.67
                            44 2.67  39 2.67  34 2.67
  13  0.333  0.667  0.125-  21 2.34  17 2.34  19 2.34  29 2.60  32 2.60  33 2.67  35 2.67  36 2.67
                            40 2.67  38 2.67  34 2.67
  14  0.667  0.333  0.875-  22 2.34  20 2.34  18 2.34  30 2.60  31 2.60  34 2.67  39 2.67  37 2.67
                            33 2.67  35 2.67  41 2.67
  15  0.667  0.333  0.375-  23 2.34  25 2.34  27 2.34  30 2.60  31 2.60  38 2.67  46 2.67  45 2.67
                            36 2.67  40 2.67  47 2.67
  16  0.333  0.667  0.625-  24 2.34  26 2.34  28 2.34  29 2.60  32 2.60  37 2.67  41 2.67  45 2.67
                            47 2.67  46 2.67  39 2.67
  17  0.667  0.833  0.125-  11 2.34  13 2.34   7 2.34   1 2.60  10 2.60  33 2.67  36 2.67  34 2.67
                            38 2.67  42 2.67  43 2.67
  18  0.333  0.167  0.875-   8 2.34  12 2.34  14 2.34   2 2.60   9 2.60  42 2.67  44 2.67  33 2.67
                            37 2.67  34 2.67  39 2.67
  19  0.167  0.833  0.125-   9 2.34   7 2.34  13 2.34  12 2.60   3 2.60  35 2.67  40 2.67  42 2.67
                            43 2.67  38 2.67  34 2.67
  20  0.833  0.167  0.875-  10 2.34   8 2.34  14 2.34  11 2.60   4 2.60  34 2.67  39 2.67  42 2.67
                            44 2.67  35 2.67  41 2.67
  21  0.167  0.333  0.125-  13 2.34  11 2.34   9 2.34   8 2.60   5 2.60  42 2.67  43 2.67  35 2.67
                            40 2.67  36 2.67  33 2.67
  22  0.833  0.667  0.875-  14 2.34  12 2.34  10 2.34   7 2.60   6 2.60  33 2.67  35 2.67  37 2.67
                            41 2.67  42 2.67  44 2.67
  23  0.833  0.667  0.375-  15 2.34   3 2.34   1 2.34   7 2.60   6 2.60  36 2.67  40 2.67  45 2.67
                            47 2.67  43 2.67  48 2.67
  24  0.167  0.333  0.625-  16 2.34   4 2.34   2 2.34   8 2.60   5 2.60  44 2.67  48 2.67  47 2.67
                            41 2.67  37 2.67  45 2.67
  25  0.333  0.167  0.375-   3 2.34  15 2.34   5 2.34   9 2.60   2 2.60  38 2.67  43 2.67  46 2.67
                            48 2.67  36 2.67  45 2.67
  26  0.667  0.833  0.625-   4 2.34  16 2.34   6 2.34  10 2.60   1 2.60  37 2.67  45 2.67  39 2.67
                            46 2.67  44 2.67  48 2.67
  27  0.833  0.167  0.375-   1 2.34   5 2.34  15 2.34  11 2.60   4 2.60  38 2.67  43 2.67  46 2.67
                            48 2.67  47 2.67  40 2.67
  28  0.167  0.833  0.625-   2 2.34   6 2.34  16 2.34  12 2.60   3 2.60  41 2.67  47 2.67  44 2.67
                            48 2.67  39 2.67  46 2.67
  29  0.333  0.667  0.375-   5 2.34   1 2.34   3 2.34  13 2.60  16 2.60  36 2.67  40 2.67  45 2.67
                            47 2.67  46 2.67  38 2.67
  30  0.667  0.333  0.625-   6 2.34   2 2.34   4 2.34  14 2.60  15 2.60  39 2.67  46 2.67  45 2.67
                            37 2.67  41 2.67  47 2.67
  31  0.667  0.333  0.125-   7 2.34   9 2.34  11 2.34  14 2.60  15 2.60  34 2.67  38 2.67  36 2.67
                            33 2.67  35 2.67  40 2.67
  32  0.333  0.667  0.875-   8 2.34  10 2.34  12 2.34  13 2.60  16 2.60  33 2.67  35 2.67  37 2.67
                            41 2.67  39 2.67  34 2.67
  33  0.500  0.500  0.000-  36 2.60  37 2.60  10 2.67  17 2.67   7 2.67  22 2.67  31 2.67  32 2.67
                            13 2.67  14 2.67   9 2.67  18 2.67  21 2.67   8 2.67
  34  0.500  0.000  0.000-  38 2.60  39 2.60  14 2.67  31 2.67  17 2.67  20 2.67  10 2.67  11 2.67
                             9 2.67  13 2.67  32 2.67  19 2.67  12 2.67  18 2.67
  35  0.000  0.500  0.000-  40 2.60  41 2.60  12 2.67  19 2.67   8 2.67  21 2.67  22 2.67  32 2.67
                             7 2.67  13 2.67  20 2.67  11 2.67  31 2.67  14 2.67
  36  0.500  0.500  0.250-  33 2.60  45 2.60   1 2.67  17 2.67   7 2.67  23 2.67  29 2.67  31 2.67
                            13 2.67  15 2.67   9 2.67  25 2.67   5 2.67  21 2.67
  37  0.500  0.500  0.750-  33 2.60  45 2.60  10 2.67  26 2.67  22 2.67   6 2.67  30 2.67  32 2.67
                            14 2.67  16 2.67   2 2.67  18 2.67  24 2.67   8 2.67
  38  0.500  0.000  0.250-  34 2.60  46 2.60  15 2.67  31 2.67  17 2.67  25 2.67  27 2.67   9 2.67
                            11 2.67   1 2.67  29 2.67  13 2.67   3 2.67  19 2.67
  39  0.500  0.000  0.750-  34 2.60  46 2.60  14 2.67  30 2.67  20 2.67  26 2.67   4 2.67  10 2.67
                             2 2.67  16 2.67  32 2.67  12 2.67  28 2.67  18 2.67
  40  0.000  0.500  0.250-  35 2.60  47 2.60   3 2.67  19 2.67   5 2.67  21 2.67  23 2.67  29 2.67
                             7 2.67  13 2.67  27 2.67  11 2.67  15 2.67  31 2.67
  41  0.000  0.500  0.750-  35 2.60  47 2.60  12 2.67  28 2.67  22 2.67  24 2.67   8 2.67  32 2.67
                             6 2.67  16 2.67   4 2.67  20 2.67  30 2.67  14 2.67
  42  0.000  0.000  0.000-  43 2.60  44 2.60  18 2.67   8 2.67  21 2.67  19 2.67  20 2.67  11 2.67
                            12 2.67   9 2.67   7 2.67  22 2.67  17 2.67  10 2.67
  43  0.000  0.000  0.250-  42 2.60  48 2.60   5 2.67  21 2.67  19 2.67   3 2.67  25 2.67  27 2.67
                             9 2.67  11 2.67   7 2.67  23 2.67  17 2.67   1 2.67
  44  0.000  0.000  0.750-  42 2.60  48 2.60  18 2.67   8 2.67  24 2.67  20 2.67   2 2.67  28 2.67
                            12 2.67   4 2.67   6 2.67  22 2.67  26 2.67  10 2.67
  45  0.500  0.500  0.500-  36 2.60  37 2.60   1 2.67  26 2.67  23 2.67   6 2.67  29 2.67  30 2.67
                            15 2.67  16 2.67  25 2.67   2 2.67   5 2.67  24 2.67
  46  0.500  0.000  0.500-  38 2.60  39 2.60  15 2.67  30 2.67  25 2.67  26 2.67  27 2.67   2 2.67
                             4 2.67   1 2.67  29 2.67  16 2.67   3 2.67  28 2.67
  47  0.000  0.500  0.500-  40 2.60  41 2.60   3 2.67  28 2.67  23 2.67  24 2.67   5 2.67  29 2.67
                             6 2.67  16 2.67   4 2.67  27 2.67  15 2.67  30 2.67
  48  0.000  0.000  0.500-  43 2.60  44 2.60   5 2.67  24 2.67   3 2.67  25 2.67  27 2.67  28 2.67
                             4 2.67   2 2.67   6 2.67  23 2.67   1 2.67  26 2.67
 
  LATTYP: Found a hexagonal cell.
 ALAT       =     8.0913886122
 C/A-ratio  =     1.2850434344
  
  Lattice vectors:
  
 A1 = (   8.0913886123,   0.0000000000,   0.0000000000)
 A2 = (  -4.0456943061,   7.0073480901,   0.0000000000)
 A3 = (   0.0000000000,   0.0000000000,  10.3977858110)


Analysis of symmetry for initial positions (statically):
=====================================================================
 Subroutine PRICEL returns:
 Original cell was already a primitive cell.
 

 Routine SETGRP: Setting up the symmetry group for a 
 hexagonal supercell.


 Subroutine GETGRP returns: Found 12 space group operations
 (whereof 12 operations were pure point group operations)
 out of a pool of 24 trial point group operations.


The static configuration has the point symmetry D_3d.


Analysis of symmetry for dynamics (positions and initial velocities):
=====================================================================
 Subroutine PRICEL returns:
 Original cell was already a primitive cell.
 

 Routine SETGRP: Setting up the symmetry group for a 
 hexagonal supercell.


 Subroutine GETGRP returns: Found 12 space group operations
 (whereof 12 operations were pure point group operations)
 out of a pool of 24 trial point group operations.


The dynamic configuration has the point symmetry D_3d.


Analysis of structural, dynamic, and magnetic symmetry:
=====================================================================
 Subroutine PRICEL returns:
 Original cell was already a primitive cell.
 

 Routine SETGRP: Setting up the symmetry group for a 
 hexagonal supercell.


 Subroutine GETGRP returns: Found 12 space group operations
 (whereof 12 operations were pure point group operations)
 out of a pool of 24 trial point group operations.


The magnetic configuration has the point symmetry D_3d.


 Subroutine INISYM returns: Found 12 space group operations
 (whereof 12 operations are pure point group operations),
 and found     1 'primitive' translations


----------------------------------------------------------------------------------------

                                     Primitive cell                                     

  volume of cell :     589.5459

  direct lattice vectors                    reciprocal lattice vectors
     8.091388612  0.000000000  0.000000000     0.123588181  0.071353670  0.000000000
    -4.045694306  7.007348090  0.000000000     0.000000000  0.142707339  0.000000000
     0.000000000  0.000000000 10.397785811     0.000000000  0.000000000  0.096174322

  length of vectors
     8.091388612  8.091388612 10.397785811     0.142707339  0.142707339  0.096174322

  position of ions in fractional coordinates (direct lattice)
     0.666666666  0.833333333  0.375000000
     0.333333333  0.166666666  0.625000000
     0.166666666  0.833333333  0.375000000
     0.833333333  0.166666666  0.625000000
     0.166666666  0.333333333  0.375000000
     0.833333333  0.666666666  0.625000000
     0.833333333  0.666666666  0.125000000
     0.166666666  0.333333333  0.875000000
     0.333333333  0.166666666  0.125000000
     0.666666666  0.833333333  0.875000000
     0.833333333  0.166666666  0.125000000
     0.166666666  0.833333333  0.875000000
     0.333333333  0.666666666  0.125000000
     0.666666666  0.333333333  0.875000000
     0.666666666  0.333333333  0.375000000
     0.333333333  0.666666666  0.625000000
     0.666666666  0.833333333  0.125000000
     0.333333313  0.166666666  0.875000000
     0.166666666  0.833333333  0.125000000
     0.833333333  0.166666666  0.875000000
     0.166666666  0.333333333  0.125000000
     0.833333333  0.666666666  0.875000000
     0.833333333  0.666666666  0.375000000
     0.166666666  0.333333333  0.625000000
     0.333333333  0.166666666  0.375000000
     0.666666666  0.833333333  0.625000000
     0.833333333  0.166666666  0.375000000
     0.166666666  0.833333333  0.625000000
     0.333333333  0.666666666  0.375000000
     0.666666666  0.333333333  0.625000000
     0.666666666  0.333333333  0.125000000
     0.333333333  0.666666666  0.875000000
     0.500000000  0.500000000  0.000000000
     0.500000000  0.000000000  0.000000000
     0.000000000  0.500000000  0.000000000
     0.500000000  0.500000000  0.250000000
     0.500000000  0.500000000  0.750000000
     0.500000000  0.000000000  0.250000000
     0.500000000  0.000000000  0.750000000
     0.000000000  0.500000000  0.250000000
     0.000000000  0.500000000  0.750000000
     0.000000000  0.000000000  0.000000000
     0.000000000  0.000000000  0.250000000
     0.000000000  0.000000000  0.750000000
     0.500000000  0.500000000  0.500000000
     0.500000000  0.000000000  0.500000000
     0.000000000  0.500000000  0.500000000
     0.000000000  0.000000000  0.500000000

  ion indices of the primitive-cell ions
   primitive index   ion index
                 1           1
                 2           2
                 3           3
                 4           4
                 5           5
                 6           6
                 7           7
                 8           8
                 9           9
                10          10
                11          11
                12          12
                13          13
                14          14
                15          15
                16          16
                17          17
                18          18
                19          19
                20          20
                21          21
                22          22
                23          23
                24          24
                25          25
                26          26
                27          27
                28          28
                29          29
                30          30
                31          31
                32          32
                33          33
                34          34
                35          35
                36          36
                37          37
                38          38
                39          39
                40          40
                41          41
                42          42
                43          43
                44          44
                45          45
                46          46
                47          47
                48          48

----------------------------------------------------------------------------------------

 
 
 KPOINTS: Auto                                    

Automatic generation of k-mesh.
Space group operators:
 irot       det(A)        alpha          n_x          n_y          n_z        tau_x        tau_y        tau_z
    1     1.000000     0.000000     1.000000     0.000000     0.000000     0.000000     0.000000     0.000000
    2    -1.000000     0.000000     1.000000     0.000000     0.000000     0.000000     0.000000     0.000000
    3     1.000000   120.000000     0.000000     0.000000    -1.000000     0.000000     0.000000     0.000000
    4    -1.000000   120.000000     0.000000     0.000000    -1.000000     0.000000     0.000000     0.000000
    5     1.000000   120.000000     0.000000     0.000000     1.000000     0.000000     0.000000     0.000000
    6    -1.000000   120.000000     0.000000     0.000000     1.000000     0.000000     0.000000     0.000000
    7     1.000000   180.000000     1.000000     0.000000     0.000000     0.000000     0.000000     0.000000
    8    -1.000000   180.000000     1.000000     0.000000     0.000000     0.000000     0.000000     0.000000
    9     1.000000   180.000000     0.500000    -0.866025     0.000000     0.000000     0.000000     0.000000
   10    -1.000000   180.000000     0.500000    -0.866025     0.000000     0.000000     0.000000     0.000000
   11     1.000000   180.000000    -0.500000    -0.866025     0.000000     0.000000     0.000000     0.000000
   12    -1.000000   180.000000    -0.500000    -0.866025     0.000000     0.000000     0.000000     0.000000
 
 Subroutine IBZKPT returns following result:
 ===========================================
 
 Found     69 irreducible k-points:
 
 Following reciprocal coordinates:
            Coordinates               Weight
  0.000000  0.000000  0.000000      1.000000
  0.111111  0.000000  0.000000      6.000000
  0.222222  0.000000  0.000000      6.000000
  0.333333  0.000000  0.000000      6.000000
  0.444444  0.000000  0.000000      6.000000
  0.111111  0.111111  0.000000      6.000000
  0.222222  0.111111  0.000000     12.000000
  0.333333  0.111111  0.000000     12.000000
  0.444444  0.111111  0.000000      6.000000
  0.222222  0.222222  0.000000      6.000000
  0.333333  0.222222  0.000000     12.000000
  0.333333  0.333333  0.000000      2.000000
  0.000000  0.000000  0.142857      2.000000
  0.111111  0.000000  0.142857      6.000000
  0.111111 -0.111111  0.142857      6.000000
  0.222222  0.000000  0.142857      6.000000
  0.222222 -0.222222  0.142857      6.000000
  0.333333  0.000000  0.142857      6.000000
  0.333333 -0.333333  0.142857      6.000000
  0.444444  0.000000  0.142857      6.000000
  0.444444 -0.444444  0.142857      6.000000
  0.111111  0.111111  0.142857     12.000000
  0.222222  0.111111  0.142857     12.000000
  0.333333 -0.222222  0.142857     12.000000
  0.333333  0.111111  0.142857     12.000000
  0.444444 -0.333333  0.142857     12.000000
  0.444444  0.111111  0.142857     12.000000
  0.222222  0.222222  0.142857     12.000000
  0.333333  0.222222  0.142857     12.000000
 -0.444444 -0.333333  0.142857     12.000000
  0.333333  0.333333  0.142857      4.000000
  0.000000  0.000000  0.285714      2.000000
  0.111111  0.000000  0.285714      6.000000
  0.111111 -0.111111  0.285714      6.000000
  0.222222  0.000000  0.285714      6.000000
  0.222222 -0.222222  0.285714      6.000000
  0.333333  0.000000  0.285714      6.000000
  0.333333 -0.333333  0.285714      6.000000
  0.444444  0.000000  0.285714      6.000000
  0.444444 -0.444444  0.285714      6.000000
  0.111111  0.111111  0.285714     12.000000
  0.222222  0.111111  0.285714     12.000000
  0.333333 -0.222222  0.285714     12.000000
  0.333333  0.111111  0.285714     12.000000
  0.444444 -0.333333  0.285714     12.000000
  0.444444  0.111111  0.285714     12.000000
  0.222222  0.222222  0.285714     12.000000
  0.333333  0.222222  0.285714     12.000000
 -0.444444 -0.333333  0.285714     12.000000
  0.333333  0.333333  0.285714      4.000000
  0.000000  0.000000  0.428571      2.000000
  0.111111  0.000000  0.428571      6.000000
  0.111111 -0.111111  0.428571      6.000000
  0.222222  0.000000  0.428571      6.000000
  0.222222 -0.222222  0.428571      6.000000
  0.333333  0.000000  0.428571      6.000000
  0.333333 -0.333333  0.428571      6.000000
  0.444444  0.000000  0.428571      6.000000
  0.444444 -0.444444  0.428571      6.000000
  0.111111  0.111111  0.428571     12.000000
  0.222222  0.111111  0.428571     12.000000
  0.333333 -0.222222  0.428571     12.000000
  0.333333  0.111111  0.428571     12.000000
  0.444444 -0.333333  0.428571     12.000000
  0.444444  0.111111  0.428571     12.000000
  0.222222  0.222222  0.428571     12.000000
  0.333333  0.222222  0.428571     12.000000
 -0.444444 -0.333333  0.428571     12.000000
  0.333333  0.333333  0.428571      4.000000
 
 Following cartesian coordinates:
            Coordinates               Weight
  0.000000  0.000000  0.000000      1.000000
  0.013595  0.007849  0.000000      6.000000
  0.027189  0.015698  0.000000      6.000000
  0.040784  0.023547  0.000000      6.000000
  0.054379  0.031396  0.000000      6.000000
  0.013595  0.023547  0.000000      6.000000
  0.027189  0.031396  0.000000     12.000000
  0.040784  0.039245  0.000000     12.000000
  0.054379  0.047093  0.000000      6.000000
  0.027189  0.047093  0.000000      6.000000
  0.040784  0.054942  0.000000     12.000000
  0.040784  0.070640  0.000000      2.000000
  0.000000  0.000000  0.013602      2.000000
  0.013595  0.007849  0.013602      6.000000
  0.013595 -0.007849  0.013602      6.000000
  0.027189  0.015698  0.013602      6.000000
  0.027189 -0.015698  0.013602      6.000000
  0.040784  0.023547  0.013602      6.000000
  0.040784 -0.023547  0.013602      6.000000
  0.054379  0.031396  0.013602      6.000000
  0.054379 -0.031396  0.013602      6.000000
  0.013595  0.023547  0.013602     12.000000
  0.027189  0.031396  0.013602     12.000000
  0.040784 -0.007849  0.013602     12.000000
  0.040784  0.039245  0.013602     12.000000
  0.054379 -0.015698  0.013602     12.000000
  0.054379  0.047093  0.013602     12.000000
  0.027189  0.047093  0.013602     12.000000
  0.040784  0.054942  0.013602     12.000000
 -0.054379 -0.078489  0.013602     12.000000
  0.040784  0.070640  0.013602      4.000000
  0.000000  0.000000  0.027204      2.000000
  0.013595  0.007849  0.027204      6.000000
  0.013595 -0.007849  0.027204      6.000000
  0.027189  0.015698  0.027204      6.000000
  0.027189 -0.015698  0.027204      6.000000
  0.040784  0.023547  0.027204      6.000000
  0.040784 -0.023547  0.027204      6.000000
  0.054379  0.031396  0.027204      6.000000
  0.054379 -0.031396  0.027204      6.000000
  0.013595  0.023547  0.027204     12.000000
  0.027189  0.031396  0.027204     12.000000
  0.040784 -0.007849  0.027204     12.000000
  0.040784  0.039245  0.027204     12.000000
  0.054379 -0.015698  0.027204     12.000000
  0.054379  0.047093  0.027204     12.000000
  0.027189  0.047093  0.027204     12.000000
  0.040784  0.054942  0.027204     12.000000
 -0.054379 -0.078489  0.027204     12.000000
  0.040784  0.070640  0.027204      4.000000
  0.000000  0.000000  0.040805      2.000000
  0.013595  0.007849  0.040805      6.000000
  0.013595 -0.007849  0.040805      6.000000
  0.027189  0.015698  0.040805      6.000000
  0.027189 -0.015698  0.040805      6.000000
  0.040784  0.023547  0.040805      6.000000
  0.040784 -0.023547  0.040805      6.000000
  0.054379  0.031396  0.040805      6.000000
  0.054379 -0.031396  0.040805      6.000000
  0.013595  0.023547  0.040805     12.000000
  0.027189  0.031396  0.040805     12.000000
  0.040784 -0.007849  0.040805     12.000000
  0.040784  0.039245  0.040805     12.000000
  0.054379 -0.015698  0.040805     12.000000
  0.054379  0.047093  0.040805     12.000000
  0.027189  0.047093  0.040805     12.000000
  0.040784  0.054942  0.040805     12.000000
 -0.054379 -0.078489  0.040805     12.000000
  0.040784  0.070640  0.040805      4.000000
 


--------------------------------------------------------------------------------------------------------




 Dimension of arrays:
   k-points           NKPTS =     69   k-points in BZ     NKDIM =     69   number of bands    NBANDS=    360
   number of dos      NEDOS =    301   number of ions     NIONS =     48
   non local maximal  LDIM  =      6   non local SUM 2l+1 LMDIM =     18
   total plane-waves  NPLWV = 225792
   max r-space proj   IRMAX =      1   max aug-charges    IRDMAX=  21013
   dimension x,y,z NGX =    56 NGY =   56 NGZ =   72
   dimension x,y,z NGXF=   112 NGYF=  112 NGZF=  144
   support grid    NGXF=   112 NGYF=  112 NGZF=  144
   ions per type =              16  16  15   1
   NGX,Y,Z   is equivalent  to a cutoff of  11.51, 11.51, 11.51 a.u.
   NGXF,Y,Z  is equivalent  to a cutoff of  23.01, 23.01, 23.02 a.u.

 SYSTEM =  MnFeNiGe_mag_hex-scf                    
 POSCAR =  MnFeNiGe_hex                            

 Startparameter for this run:
   NWRITE =      2    write-flag & timer
   PREC   = accura    normal or accurate (medium, high low for compatibility)
   ISTART =      0    job   : 0-new  1-cont  2-samecut
   ICHARG =      2    charge: 1-file 2-atom 10-const
   ISPIN  =      2    spin polarized calculation?
   LNONCOLLINEAR =      F non collinear calculations
   LSORBIT =      F    spin-orbit coupling
   INIWAV =      1    electr: 0-lowe 1-rand  2-diag
   LASPH  =      F    aspherical Exc in radial PAW
   METAGGA=      F    non-selfconsistent MetaGGA calc.

 Electronic Relaxation 1
   ENCUT  =  450.0 eV  33.07 Ry    5.75 a.u.  14.00 14.00 17.98*2*pi/ulx,y,z
   ENINI  =  450.0     initial cutoff
   ENAUG  =  544.6 eV  augmentation charge cutoff
   NELM   =     60;   NELMIN=  5; NELMDL= -5     # of ELM steps 
   EDIFF  = 0.1E-05   stopping-criterion for ELM
   LREAL  =      F    real-space projection
   NLSPLINE    = F    spline interpolate recip. space projectors
   LCOMPAT=      F    compatible to vasp.4.4
   GGA_COMPAT  = T    GGA compatible to vasp.4.4-vasp.4.6
   LMAXPAW     = -100 max onsite density
   LMAXMIX     =    2 max onsite mixed and CHGCAR
   VOSKOWN=      0    Vosko Wilk Nusair interpolation
   ROPT   =    0.00000   0.00000   0.00000   0.00000
 Ionic relaxation
   EDIFFG = 0.1E-04   stopping-criterion for IOM
   NSW    =      0    number of steps for IOM
   NBLOCK =      1;   KBLOCK =      1    inner block; outer block 
   IBRION =     -1    ionic relax: 0-MD 1-quasi-New 2-CG
   NFREE  =      0    steps in history (QN), initial steepest desc. (CG)
   ISIF   =      6    stress and relaxation
   IWAVPR =     10    prediction:  0-non 1-charg 2-wave 3-comb
   ISYM   =      2    0-nonsym 1-usesym 2-fastsym
   LCORR  =      T    Harris-Foulkes like correction to forces

   POTIM  = 0.5000    time-step for ionic-motion
   TEIN   =    0.0    initial temperature
   TEBEG  =    0.0;   TEEND  =   0.0 temperature during run
   SMASS  =  -3.00    Nose mass-parameter (am)
   estimated Nose-frequenzy (Omega)   =  0.10E-29 period in steps = 0.13E+47 mass=  -0.150E-26a.u.
   SCALEE = 1.0000    scale energy and forces
   NPACO  =    256;   APACO  = 16.0  distance and # of slots for P.C.
   PSTRESS=    0.0 pullay stress

  Mass of Ions in am
   POMASS =  58.69 72.61 54.94 55.85
  Ionic Valenz
   ZVAL   =  10.00  4.00  7.00  8.00
  Atomic Wigner-Seitz radii
   RWIGS  =  -1.00 -1.00 -1.00 -1.00
  virtual crystal weights 
   VCA    =   1.00  1.00  1.00  1.00
   NELECT =     337.0000    total number of electrons
   NUPDOWN=      -1.0000    fix difference up-down

 DOS related values:
   EMIN   =  10.00;   EMAX   =-10.00  energy-range for DOS
   EFERMI =   0.00
   ISMEAR =     1;   SIGMA  =   0.20  broadening in eV -4-tet -1-fermi 0-gaus

 Electronic relaxation 2 (details)
   IALGO  =     38    algorithm
   LDIAG  =      T    sub-space diagonalisation (order eigenvalues)
   LSUBROT=      F    optimize rotation matrix (better conditioning)
   TURBO    =      0    0=normal 1=particle mesh
   IRESTART =      0    0=no restart 2=restart with 2 vectors
   NREBOOT  =      0    no. of reboots
   NMIN     =      0    reboot dimension
   EREF     =   0.00    reference energy to select bands
   IMIX   =      4    mixing-type and parameters
     AMIX     =   0.40;   BMIX     =  1.00
     AMIX_MAG =   1.60;   BMIX_MAG =  1.00
     AMIN     =   0.10
     WC   =   100.;   INIMIX=   1;  MIXPRE=   1;  MAXMIX= -45

 Intra band minimization:
   WEIMIN = 0.0000     energy-eigenvalue tresh-hold
   EBREAK =  0.69E-09  absolut break condition
   DEPER  =   0.30     relativ break condition  

   TIME   =   0.40     timestep for ELM

  volume/ion in A,a.u.               =      12.28        82.88
  Fermi-wavevector in a.u.,A,eV,Ry     =   1.358665  2.567504 25.115940  1.845969
  Thomas-Fermi vector in A             =   2.485479
 
 Write flags
   LWAVE        =      F    write WAVECAR
   LDOWNSAMPLE  =      F    k-point downsampling of WAVECAR
   LCHARG       =      T    write CHGCAR
   LVTOT        =      F    write LOCPOT, total local potential
   LVHAR        =      F    write LOCPOT, Hartree potential only
   LELF         =      F    write electronic localiz. function (ELF)
   LORBIT       =     11    0 simple, 1 ext, 2 COOP (PROOUT), +10 PAW based schemes


 Dipole corrections
   LMONO  =      F    monopole corrections only (constant potential shift)
   LDIPOL =      F    correct potential (dipole corrections)
   IDIPOL =      0    1-x, 2-y, 3-z, 4-all directions 
   EPSILON=  1.0000000 bulk dielectric constant

 Exchange correlation treatment:
   GGA     =    --    GGA type
   LEXCH   =     8    internal setting for exchange type
   VOSKOWN=      0    Vosko Wilk Nusair interpolation
   LHFCALC =     F    Hartree Fock is set to
   LHFONE  =     F    Hartree Fock one center treatment
   AEXX    =    0.0000 exact exchange contribution

 Linear response parameters
   LEPSILON=     F    determine dielectric tensor
   LRPA    =     F    only Hartree local field effects (RPA)
   LNABLA  =     F    use nabla operator in PAW spheres
   LVEL    =     F    velocity operator in full k-point grid
   LINTERFAST=   F  fast interpolation
   KINTER  =     0    interpolate to denser k-point grid
   CSHIFT  =0.1000    complex shift for real part using Kramers Kronig
   OMEGAMAX=  -1.0    maximum frequency
   DEG_THRESHOLD= 0.2000000E-02 threshold for treating states as degnerate
   RTIME   =   -0.100 relaxation time in fs
  (WPLASMAI=    0.000 imaginary part of plasma frequency in eV, 0.658/RTIME)
   DFIELD  = 0.0000000 0.0000000 0.0000000 field for delta impulse in time
 
 Orbital magnetization related:
   ORBITALMAG=     F  switch on orbital magnetization
   LCHIMAG   =     F  perturbation theory with respect to B field
   DQ        =  0.001000  dq finite difference perturbation B field
   LLRAUG    =     F  two centre corrections for induced B field



--------------------------------------------------------------------------------------------------------


 Static calculation
 charge density and potential will be updated during run
 spin polarized calculation
 Variant of blocked Davidson
 Davidson routine will perform the subspace rotation
 perform sub-space diagonalisation
    after iterative eigenvector-optimisation
 modified Broyden-mixing scheme, WC =      100.0
 initial mixing is a Kerker type mixing with AMIX =  0.4000 and BMIX =      1.0000
 Hartree-type preconditioning will be used
 using additional bands          191
 reciprocal scheme for non local part
 use partial core corrections
 calculate Harris-corrections to forces 
   (improved forces if not selfconsistent)
 use gradient corrections 
 use of overlap-Matrix (Vanderbilt PP)
 Methfessel and Paxton  Order N= 1 SIGMA  =   0.20


--------------------------------------------------------------------------------------------------------


  energy-cutoff  :      450.00
  volume of cell :      589.55
      direct lattice vectors                 reciprocal lattice vectors
     8.091388612  0.000000000  0.000000000     0.123588181  0.071353670  0.000000000
    -4.045694306  7.007348090  0.000000000     0.000000000  0.142707339  0.000000000
     0.000000000  0.000000000 10.397785811     0.000000000  0.000000000  0.096174322

  length of vectors
     8.091388612  8.091388612 10.397785811     0.142707339  0.142707339  0.096174322


 
 k-points in units of 2pi/SCALE and weight: Auto                                    
   0.00000000  0.00000000  0.00000000       0.002
   0.01359470  0.00784890  0.00000000       0.011
   0.02718940  0.01569781  0.00000000       0.011
   0.04078410  0.02354671  0.00000000       0.011
   0.05437880  0.03139561  0.00000000       0.011
   0.01359470  0.02354671  0.00000000       0.011
   0.02718940  0.03139561  0.00000000       0.021
   0.04078410  0.03924452  0.00000000       0.021
   0.05437880  0.04709342  0.00000000       0.011
   0.02718940  0.04709342  0.00000000       0.011
   0.04078410  0.05494233  0.00000000       0.021
   0.04078410  0.07064013  0.00000000       0.004
   0.00000000  0.00000000  0.01360180       0.004
   0.01359470  0.00784890  0.01360180       0.011
   0.01359470 -0.00784890  0.01360180       0.011
   0.02718940  0.01569781  0.01360180       0.011
   0.02718940 -0.01569781  0.01360180       0.011
   0.04078410  0.02354671  0.01360180       0.011
   0.04078410 -0.02354671  0.01360180       0.011
   0.05437880  0.03139561  0.01360180       0.011
   0.05437880 -0.03139561  0.01360180       0.011
   0.01359470  0.02354671  0.01360180       0.021
   0.02718940  0.03139561  0.01360180       0.021
   0.04078410 -0.00784890  0.01360180       0.021
   0.04078410  0.03924452  0.01360180       0.021
   0.05437880 -0.01569781  0.01360180       0.021
   0.05437880  0.04709342  0.01360180       0.021
   0.02718940  0.04709342  0.01360180       0.021
   0.04078410  0.05494233  0.01360180       0.021
  -0.05437880 -0.07848904  0.01360180       0.021
   0.04078410  0.07064013  0.01360180       0.007
   0.00000000  0.00000000  0.02720359       0.004
   0.01359470  0.00784890  0.02720359       0.011
   0.01359470 -0.00784890  0.02720359       0.011
   0.02718940  0.01569781  0.02720359       0.011
   0.02718940 -0.01569781  0.02720359       0.011
   0.04078410  0.02354671  0.02720359       0.011
   0.04078410 -0.02354671  0.02720359       0.011
   0.05437880  0.03139561  0.02720359       0.011
   0.05437880 -0.03139561  0.02720359       0.011
   0.01359470  0.02354671  0.02720359       0.021
   0.02718940  0.03139561  0.02720359       0.021
   0.04078410 -0.00784890  0.02720359       0.021
   0.04078410  0.03924452  0.02720359       0.021
   0.05437880 -0.01569781  0.02720359       0.021
   0.05437880  0.04709342  0.02720359       0.021
   0.02718940  0.04709342  0.02720359       0.021
   0.04078410  0.05494233  0.02720359       0.021
  -0.05437880 -0.07848904  0.02720359       0.021
   0.04078410  0.07064013  0.02720359       0.007
   0.00000000  0.00000000  0.04080539       0.004
   0.01359470  0.00784890  0.04080539       0.011
   0.01359470 -0.00784890  0.04080539       0.011
   0.02718940  0.01569781  0.04080539       0.011
   0.02718940 -0.01569781  0.04080539       0.011
   0.04078410  0.02354671  0.04080539       0.011
   0.04078410 -0.02354671  0.04080539       0.011
   0.05437880  0.03139561  0.04080539       0.011
   0.05437880 -0.03139561  0.04080539       0.011
   0.01359470  0.02354671  0.04080539       0.021
   0.02718940  0.03139561  0.04080539       0.021
   0.04078410 -0.00784890  0.04080539       0.021
   0.04078410  0.03924452  0.04080539       0.021
   0.05437880 -0.01569781  0.04080539       0.021
   0.05437880  0.04709342  0.04080539       0.021
   0.02718940  0.04709342  0.04080539       0.021
   0.04078410  0.05494233  0.04080539       0.021
  -0.05437880 -0.07848904  0.04080539       0.021
   0.04078410  0.07064013  0.04080539       0.007
 
 k-points in reciprocal lattice and weights: Auto                                    
   0.00000000  0.00000000  0.00000000       0.002
   0.11111111  0.00000000  0.00000000       0.011
   0.22222222  0.00000000  0.00000000       0.011
   0.33333333  0.00000000  0.00000000       0.011
   0.44444444  0.00000000  0.00000000       0.011
   0.11111111  0.11111111  0.00000000       0.011
   0.22222222  0.11111111  0.00000000       0.021
   0.33333333  0.11111111  0.00000000       0.021
   0.44444444  0.11111111  0.00000000       0.011
   0.22222222  0.22222222  0.00000000       0.011
   0.33333333  0.22222222  0.00000000       0.021
   0.33333333  0.33333333  0.00000000       0.004
   0.00000000  0.00000000  0.14285714       0.004
   0.11111111  0.00000000  0.14285714       0.011
   0.11111111 -0.11111111  0.14285714       0.011
   0.22222222  0.00000000  0.14285714       0.011
   0.22222222 -0.22222222  0.14285714       0.011
   0.33333333  0.00000000  0.14285714       0.011
   0.33333333 -0.33333333  0.14285714       0.011
   0.44444444  0.00000000  0.14285714       0.011
   0.44444444 -0.44444444  0.14285714       0.011
   0.11111111  0.11111111  0.14285714       0.021
   0.22222222  0.11111111  0.14285714       0.021
   0.33333333 -0.22222222  0.14285714       0.021
   0.33333333  0.11111111  0.14285714       0.021
   0.44444444 -0.33333333  0.14285714       0.021
   0.44444444  0.11111111  0.14285714       0.021
   0.22222222  0.22222222  0.14285714       0.021
   0.33333333  0.22222222  0.14285714       0.021
  -0.44444444 -0.33333333  0.14285714       0.021
   0.33333333  0.33333333  0.14285714       0.007
   0.00000000  0.00000000  0.28571429       0.004
   0.11111111  0.00000000  0.28571429       0.011
   0.11111111 -0.11111111  0.28571429       0.011
   0.22222222  0.00000000  0.28571429       0.011
   0.22222222 -0.22222222  0.28571429       0.011
   0.33333333  0.00000000  0.28571429       0.011
   0.33333333 -0.33333333  0.28571429       0.011
   0.44444444  0.00000000  0.28571429       0.011
   0.44444444 -0.44444444  0.28571429       0.011
   0.11111111  0.11111111  0.28571429       0.021
   0.22222222  0.11111111  0.28571429       0.021
   0.33333333 -0.22222222  0.28571429       0.021
   0.33333333  0.11111111  0.28571429       0.021
   0.44444444 -0.33333333  0.28571429       0.021
   0.44444444  0.11111111  0.28571429       0.021
   0.22222222  0.22222222  0.28571429       0.021
   0.33333333  0.22222222  0.28571429       0.021
  -0.44444444 -0.33333333  0.28571429       0.021
   0.33333333  0.33333333  0.28571429       0.007
   0.00000000  0.00000000  0.42857143       0.004
   0.11111111  0.00000000  0.42857143       0.011
   0.11111111 -0.11111111  0.42857143       0.011
   0.22222222  0.00000000  0.42857143       0.011
   0.22222222 -0.22222222  0.42857143       0.011
   0.33333333  0.00000000  0.42857143       0.011
   0.33333333 -0.33333333  0.42857143       0.011
   0.44444444  0.00000000  0.42857143       0.011
   0.44444444 -0.44444444  0.42857143       0.011
   0.11111111  0.11111111  0.42857143       0.021
   0.22222222  0.11111111  0.42857143       0.021
   0.33333333 -0.22222222  0.42857143       0.021
   0.33333333  0.11111111  0.42857143       0.021
   0.44444444 -0.33333333  0.42857143       0.021
   0.44444444  0.11111111  0.42857143       0.021
   0.22222222  0.22222222  0.42857143       0.021
   0.33333333  0.22222222  0.42857143       0.021
  -0.44444444 -0.33333333  0.42857143       0.021
   0.33333333  0.33333333  0.42857143       0.007
 
 position of ions in fractional coordinates (direct lattice) 
   0.66666667  0.83333333  0.37500000
   0.33333333  0.16666667  0.62500000
   0.16666667  0.83333333  0.37500000
   0.83333333  0.16666667  0.62500000
   0.16666667  0.33333333  0.37500000
   0.83333333  0.66666667  0.62500000
   0.83333333  0.66666667  0.12500000
   0.16666667  0.33333333  0.87500000
   0.33333333  0.16666667  0.12500000
   0.66666667  0.83333333  0.87500000
   0.83333333  0.16666667  0.12500000
   0.16666667  0.83333333  0.87500000
   0.33333333  0.66666667  0.12500000
   0.66666667  0.33333333  0.87500000
   0.66666667  0.33333333  0.37500000
   0.33333333  0.66666667  0.62500000
   0.66666667  0.83333333  0.12500000
   0.33333331  0.16666667  0.87500000
   0.16666667  0.83333333  0.12500000
   0.83333333  0.16666667  0.87500000
   0.16666667  0.33333333  0.12500000
   0.83333333  0.66666667  0.87500000
   0.83333333  0.66666667  0.37500000
   0.16666667  0.33333333  0.62500000
   0.33333333  0.16666667  0.37500000
   0.66666667  0.83333333  0.62500000
   0.83333333  0.16666667  0.37500000
   0.16666667  0.83333333  0.62500000
   0.33333333  0.66666667  0.37500000
   0.66666667  0.33333333  0.62500000
   0.66666667  0.33333333  0.12500000
   0.33333333  0.66666667  0.87500000
   0.50000000  0.50000000  0.00000000
   0.50000000  0.00000000  0.00000000
   0.00000000  0.50000000  0.00000000
   0.50000000  0.50000000  0.25000000
   0.50000000  0.50000000  0.75000000
   0.50000000  0.00000000  0.25000000
   0.50000000  0.00000000  0.75000000
   0.00000000  0.50000000  0.25000000
   0.00000000  0.50000000  0.75000000
   0.00000000  0.00000000  0.00000000
   0.00000000  0.00000000  0.25000000
   0.00000000  0.00000000  0.75000000
   0.50000000  0.50000000  0.50000000
   0.50000000  0.00000000  0.50000000
   0.00000000  0.50000000  0.50000000
   0.00000000  0.00000000  0.50000000
 
 position of ions in cartesian coordinates  (Angst):
   2.02284715  5.83945674  3.89916968
   2.02284715  1.16789134  6.49861613
  -2.02284716  5.83945674  3.89916968
   6.06854146  1.16789134  6.49861613
  -0.00000000  2.33578269  3.89916968
   4.04569431  4.67156539  6.49861613
   4.04569431  4.67156539  1.29972323
  -0.00000000  2.33578269  9.09806258
   2.02284715  1.16789134  1.29972323
   2.02284715  5.83945674  9.09806258
   6.06854146  1.16789134  1.29972323
  -2.02284716  5.83945674  9.09806258
   0.00000000  4.67156539  1.29972323
   4.04569430  2.33578269  9.09806258
   4.04569430  2.33578269  3.89916968
   0.00000000  4.67156539  6.49861613
   2.02284715  5.83945674  1.29972323
   2.02284699  1.16789134  9.09806258
  -2.02284716  5.83945674  1.29972323
   6.06854146  1.16789134  9.09806258
  -0.00000000  2.33578269  1.29972323
   4.04569431  4.67156539  9.09806258
   4.04569431  4.67156539  3.89916968
  -0.00000000  2.33578269  6.49861613
   2.02284715  1.16789134  3.89916968
   2.02284715  5.83945674  6.49861613
   6.06854146  1.16789134  3.89916968
  -2.02284716  5.83945674  6.49861613
   0.00000000  4.67156539  3.89916968
   4.04569430  2.33578269  6.49861613
   4.04569430  2.33578269  1.29972323
   0.00000000  4.67156539  9.09806258
   2.02284715  3.50367405  0.00000000
   4.04569431  0.00000000  0.00000000
  -2.02284715  3.50367405  0.00000000
   2.02284715  3.50367405  2.59944645
   2.02284715  3.50367405  7.79833936
   4.04569431  0.00000000  2.59944645
   4.04569431  0.00000000  7.79833936
  -2.02284715  3.50367405  2.59944645
  -2.02284715  3.50367405  7.79833936
   0.00000000  0.00000000  0.00000000
   0.00000000  0.00000000  2.59944645
   0.00000000  0.00000000  7.79833936
   2.02284715  3.50367405  5.19889291
   4.04569431  0.00000000  5.19889291
  -2.02284715  3.50367405  5.19889291
   0.00000000  0.00000000  5.19889291
 


--------------------------------------------------------------------------------------------------------


 k-point   1 :   0.0000 0.0000 0.0000  plane waves:   12731
 k-point   2 :   0.1111 0.0000 0.0000  plane waves:   12739
 k-point   3 :   0.2222 0.0000 0.0000  plane waves:   12756
 k-point   4 :   0.3333 0.0000 0.0000  plane waves:   12764
 k-point   5 :   0.4444 0.0000 0.0000  plane waves:   12792
 k-point   6 :   0.1111 0.1111 0.0000  plane waves:   12750
 k-point   7 :   0.2222 0.1111 0.0000  plane waves:   12775
 k-point   8 :   0.3333 0.1111 0.0000  plane waves:   12776
 k-point   9 :   0.4444 0.1111 0.0000  plane waves:   12766
 k-point  10 :   0.2222 0.2222 0.0000  plane waves:   12784
 k-point  11 :   0.3333 0.2222 0.0000  plane waves:   12769
 k-point  12 :   0.3333 0.3333 0.0000  plane waves:   12816
 k-point  13 :   0.0000 0.0000 0.1429  plane waves:   12690
 k-point  14 :   0.1111 0.0000 0.1429  plane waves:   12745
 k-point  15 :   0.1111-0.1111 0.1429  plane waves:   12745
 k-point  16 :   0.2222 0.0000 0.1429  plane waves:   12780
 k-point  17 :   0.2222-0.2222 0.1429  plane waves:   12780
 k-point  18 :   0.3333 0.0000 0.1429  plane waves:   12759
 k-point  19 :   0.3333-0.3333 0.1429  plane waves:   12759
 k-point  20 :   0.4444 0.0000 0.1429  plane waves:   12774
 k-point  21 :   0.4444-0.4444 0.1429  plane waves:   12774
 k-point  22 :   0.1111 0.1111 0.1429  plane waves:   12756
 k-point  23 :   0.2222 0.1111 0.1429  plane waves:   12775
 k-point  24 :   0.3333-0.2222 0.1429  plane waves:   12775
 k-point  25 :   0.3333 0.1111 0.1429  plane waves:   12783
 k-point  26 :   0.4444-0.3333 0.1429  plane waves:   12783
 k-point  27 :   0.4444 0.1111 0.1429  plane waves:   12787
 k-point  28 :   0.2222 0.2222 0.1429  plane waves:   12779
 k-point  29 :   0.3333 0.2222 0.1429  plane waves:   12785
 k-point  30 :  -0.4444-0.3333 0.1429  plane waves:   12785
 k-point  31 :   0.3333 0.3333 0.1429  plane waves:   12804
 k-point  32 :   0.0000 0.0000 0.2857  plane waves:   12684
 k-point  33 :   0.1111 0.0000 0.2857  plane waves:   12748
 k-point  34 :   0.1111-0.1111 0.2857  plane waves:   12748
 k-point  35 :   0.2222 0.0000 0.2857  plane waves:   12772
 k-point  36 :   0.2222-0.2222 0.2857  plane waves:   12772
 k-point  37 :   0.3333 0.0000 0.2857  plane waves:   12791
 k-point  38 :   0.3333-0.3333 0.2857  plane waves:   12791
 k-point  39 :   0.4444 0.0000 0.2857  plane waves:   12786
 k-point  40 :   0.4444-0.4444 0.2857  plane waves:   12786
 k-point  41 :   0.1111 0.1111 0.2857  plane waves:   12779
 k-point  42 :   0.2222 0.1111 0.2857  plane waves:   12790
 k-point  43 :   0.3333-0.2222 0.2857  plane waves:   12790
 k-point  44 :   0.3333 0.1111 0.2857  plane waves:   12775
 k-point  45 :   0.4444-0.3333 0.2857  plane waves:   12775
 k-point  46 :   0.4444 0.1111 0.2857  plane waves:   12797
 k-point  47 :   0.2222 0.2222 0.2857  plane waves:   12783
 k-point  48 :   0.3333 0.2222 0.2857  plane waves:   12797
 k-point  49 :  -0.4444-0.3333 0.2857  plane waves:   12797
 k-point  50 :   0.3333 0.3333 0.2857  plane waves:   12795
 k-point  51 :   0.0000 0.0000 0.4286  plane waves:   12726
 k-point  52 :   0.1111 0.0000 0.4286  plane waves:   12775
 k-point  53 :   0.1111-0.1111 0.4286  plane waves:   12775
 k-point  54 :   0.2222 0.0000 0.4286  plane waves:   12768
 k-point  55 :   0.2222-0.2222 0.4286  plane waves:   12768
 k-point  56 :   0.3333 0.0000 0.4286  plane waves:   12773
 k-point  57 :   0.3333-0.3333 0.4286  plane waves:   12773
 k-point  58 :   0.4444 0.0000 0.4286  plane waves:   12784
 k-point  59 :   0.4444-0.4444 0.4286  plane waves:   12784
 k-point  60 :   0.1111 0.1111 0.4286  plane waves:   12777
 k-point  61 :   0.2222 0.1111 0.4286  plane waves:   12790
 k-point  62 :   0.3333-0.2222 0.4286  plane waves:   12790
 k-point  63 :   0.3333 0.1111 0.4286  plane waves:   12778
 k-point  64 :   0.4444-0.3333 0.4286  plane waves:   12778
 k-point  65 :   0.4444 0.1111 0.4286  plane waves:   12788
 k-point  66 :   0.2222 0.2222 0.4286  plane waves:   12790
 k-point  67 :   0.3333 0.2222 0.4286  plane waves:   12788
 k-point  68 :  -0.4444-0.3333 0.4286  plane waves:   12788
 k-point  69 :   0.3333 0.3333 0.4286  plane waves:   12807

 maximum and minimum number of plane-waves per node :      2164     2089

 maximum number of plane-waves:     12816
 maximum index in each direction: 
   IXMAX=   14   IYMAX=   14   IZMAX=   17
   IXMIN=  -14   IYMIN=  -14   IZMIN=  -18


 parallel 3D FFT for wavefunctions:
    minimum data exchange during FFTs selected (reduces bandwidth)
 parallel 3D FFT for charge:
    minimum data exchange during FFTs selected (reduces bandwidth)


 total amount of memory used by VASP MPI-rank0   584209. kBytes
=======================================================================

   base      :      30000. kBytes
   nonl-proj :      86695. kBytes
   fftplans  :       3906. kBytes
   grid      :      11074. kBytes
   one-center:        248. kBytes
   wavefun   :     452286. kBytes
 
     INWAV:  cpu time    0.0000: real time    0.0081
 Broyden mixing: mesh for mixing (old mesh)
   NGX = 27   NGY = 27   NGZ = 35
  (NGX  =112   NGY  =112   NGZ  =144)
  gives a total of  25515 points

 initial charge density was supplied:
 charge density of overlapping atoms calculated
 number of electron     337.0000000 magnetization     160.0000000
 keeping initial charge density in first step


--------------------------------------------------------------------------------------------------------


 Maximum index for augmentation-charges          954 (set IRDMAX)


--------------------------------------------------------------------------------------------------------


 First call to EWALD:  gamma=   0.211
 Maximum number of real-space cells 3x 3x 2
 Maximum number of reciprocal cells 3x 3x 3

    FEWALD:  cpu time    0.0040: real time    0.0210


--------------------------------------- Iteration      1(   1)  ---------------------------------------


    POTLOK:  cpu time    0.1600: real time    0.4329
    SETDIJ:  cpu time    0.0320: real time    0.1590
     EDDAV:  cpu time  317.9787: real time  320.6976
       DOS:  cpu time    0.0460: real time    0.0850
    --------------------------------------------
      LOOP:  cpu time  318.2166: real time  321.3745

 eigenvalue-minimisations  : 99360
 total energy-change (2. order) : 0.2847701E+04  (-0.1080202E+05)
 number of electron     337.0000000 magnetization     160.0000000
 augmentation part      337.0000000 magnetization     160.0000000

 Free energy of the ion-electron system (eV)
  ---------------------------------------------------
  alpha Z        PSCENC =      1629.09346471
  Ewald energy   TEWEN  =    -22730.33220638
  -Hartree energ DENC   =     -6636.76312930
  -exchange      EXHF   =         0.00000000
  -V(xc)+E(xc)   XCENC  =       321.25976784
  PAW double counting   =     23377.83946347   -23998.34197029
  entropy T*S    EENTRO =         0.00777532
  eigenvalues    EBANDS =      5116.71070095
  atomic energy  EATOM  =     25768.22672671
  Solvation  Ediel_sol  =         0.00000000
  ---------------------------------------------------
  free energy    TOTEN  =      2847.70059303 eV

  energy without entropy =     2847.69281772  energy(sigma->0) =     2847.69800126


--------------------------------------------------------------------------------------------------------




--------------------------------------- Iteration      1(   2)  ---------------------------------------


     EDDAV:  cpu time  318.2266: real time  319.5026
       DOS:  cpu time    0.0530: real time    0.0533
    --------------------------------------------
      LOOP:  cpu time  318.2796: real time  319.5559

 eigenvalue-minimisations  : 99360
 total energy-change (2. order) :-0.2661668E+04  (-0.2371268E+04)
 number of electron     337.0000000 magnetization     160.0000000
 augmentation part      337.0000000 magnetization     160.0000000

 Free energy of the ion-electron system (eV)
  ---------------------------------------------------
  alpha Z        PSCENC =      1629.09346471
  Ewald energy   TEWEN  =    -22730.33220638
  -Hartree energ DENC   =     -6636.76312930
  -exchange      EXHF   =         0.00000000
  -V(xc)+E(xc)   XCENC  =       321.25976784
  PAW double counting   =     23377.83946347   -23998.34197029
  entropy T*S    EENTRO =        -0.00215431
  eigenvalues    EBANDS =      2455.05297171
  atomic energy  EATOM  =     25768.22672671
  Solvation  Ediel_sol  =         0.00000000
  ---------------------------------------------------
  free energy    TOTEN  =       186.03293417 eV

  energy without entropy =      186.03508848  energy(sigma->0) =      186.03365227


--------------------------------------------------------------------------------------------------------




--------------------------------------- Iteration      1(   3)  ---------------------------------------


     EDDAV:  cpu time  318.0996: real time  319.7051
       DOS:  cpu time    0.0580: real time    0.0583
    --------------------------------------------
      LOOP:  cpu time  318.1576: real time  319.7634

 eigenvalue-minimisations  : 99464
 total energy-change (2. order) :-0.4465611E+03  (-0.3674935E+03)
 number of electron     337.0000000 magnetization     160.0000000
 augmentation part      337.0000000 magnetization     160.0000000

 Free energy of the ion-electron system (eV)
  ---------------------------------------------------
  alpha Z        PSCENC =      1629.09346471
  Ewald energy   TEWEN  =    -22730.33220638
  -Hartree energ DENC   =     -6636.76312930
  -exchange      EXHF   =         0.00000000
  -V(xc)+E(xc)   XCENC  =       321.25976784
  PAW double counting   =     23377.83946347   -23998.34197029
  entropy T*S    EENTRO =         0.02832862
  eigenvalues    EBANDS =      2008.46136146
  atomic energy  EATOM  =     25768.22672671
  Solvation  Ediel_sol  =         0.00000000
  ---------------------------------------------------
  free energy    TOTEN  =      -260.52819314 eV

  energy without entropy =     -260.55652177  energy(sigma->0) =     -260.53763602


--------------------------------------------------------------------------------------------------------




--------------------------------------- Iteration      1(   4)  ---------------------------------------


     EDDAV:  cpu time  371.4235: real time  373.2419
       DOS:  cpu time    0.0610: real time    0.0868
    --------------------------------------------
      LOOP:  cpu time  371.4845: real time  373.3287

 eigenvalue-minimisations  :121464
 total energy-change (2. order) :-0.3245749E+02  (-0.3101429E+02)
 number of electron     337.0000000 magnetization     160.0000000
 augmentation part      337.0000000 magnetization     160.0000000

 Free energy of the ion-electron system (eV)
  ---------------------------------------------------
  alpha Z        PSCENC =      1629.09346471
  Ewald energy   TEWEN  =    -22730.33220638
  -Hartree energ DENC   =     -6636.76312930
  -exchange      EXHF   =         0.00000000
  -V(xc)+E(xc)   XCENC  =       321.25976784
  PAW double counting   =     23377.83946347   -23998.34197029
  entropy T*S    EENTRO =         0.03406026
  eigenvalues    EBANDS =      1975.99814269
  atomic energy  EATOM  =     25768.22672671
  Solvation  Ediel_sol  =         0.00000000
  ---------------------------------------------------
  free energy    TOTEN  =      -292.98568028 eV

  energy without entropy =     -293.01974054  energy(sigma->0) =     -292.99703370


--------------------------------------------------------------------------------------------------------




--------------------------------------- Iteration      1(   5)  ---------------------------------------


     EDDAV:  cpu time  372.0904: real time  373.5621
       DOS:  cpu time    0.0620: real time    0.0618
    CHARGE:  cpu time    5.9321: real time    6.0344
    MIXING:  cpu time    0.0050: real time    0.0066
    --------------------------------------------
      LOOP:  cpu time  378.0895: real time  379.6649

 eigenvalue-minimisations  :121568
 total energy-change (2. order) :-0.8356478E+00  (-0.8336799E+00)
 number of electron     337.0000221 magnetization     124.8540197
 augmentation part      120.5533493 magnetization     101.9179771

 Broyden mixing:
  rms(total) = 0.10389E+02    rms(broyden)= 0.10388E+02
  rms(prec ) = 0.11280E+02
  weight for this iteration     100.00

 Free energy of the ion-electron system (eV)
  ---------------------------------------------------
  alpha Z        PSCENC =      1629.09346471
  Ewald energy   TEWEN  =    -22730.33220638
  -Hartree energ DENC   =     -6636.76312930
  -exchange      EXHF   =         0.00000000
  -V(xc)+E(xc)   XCENC  =       321.25976784
  PAW double counting   =     23377.83946347   -23998.34197029
  entropy T*S    EENTRO =         0.03403894
  eigenvalues    EBANDS =      1975.16251616
  atomic energy  EATOM  =     25768.22672671
  Solvation  Ediel_sol  =         0.00000000
  ---------------------------------------------------
  free energy    TOTEN  =      -293.82132813 eV

  energy without entropy =     -293.85536707  energy(sigma->0) =     -293.83267444


--------------------------------------------------------------------------------------------------------




--------------------------------------- Iteration      1(   6)  ---------------------------------------


    POTLOK:  cpu time    0.1490: real time    0.1583
    SETDIJ:  cpu time    0.0280: real time    0.0282
     EDDAV:  cpu time  381.5210: real time  382.9478
       DOS:  cpu time    0.0630: real time    0.0633
    CHARGE:  cpu time    5.6001: real time    5.6215
    MIXING:  cpu time    0.0060: real time    0.1047
    --------------------------------------------
[...]
   43        0.020   0.016   2.805   2.841
   44        0.020   0.016   2.805   2.841
   45        0.018   0.016   2.713   2.747
   46        0.018   0.016   2.713   2.747
   47        0.018   0.016   2.713   2.747
   48        0.014   0.004   2.205   2.224
--------------------------------------------------
tot         -0.309  -1.747  45.617  43.561
 
    CHARGE:  cpu time    5.5732: real time    5.5955
    FORLOC:  cpu time    0.0220: real time    0.0311
    FORNL :  cpu time  108.1726: real time  108.5664
    STRESS:  cpu time  186.7746: real time  187.4873
    FORCOR:  cpu time    0.1670: real time    0.1960
    FORHAR:  cpu time    0.0340: real time    0.0439
    MIXING:  cpu time    0.0070: real time    0.0078
    OFIELD:  cpu time    0.0010: real time    0.0042

  FORCE on cell =-STRESS in cart. coord.  units (eV):
  Direction    XX          YY          ZZ          XY          YZ          ZX
  --------------------------------------------------------------------------------------
  Alpha Z  1629.09346  1629.09346  1629.09346
  Ewald   -7355.98828 -7355.98828 -8018.45048    -0.00001     0.00000     0.00000
  Hartree  2096.02922  2096.02922  1969.76320    -0.00000     0.00000    -0.00000
  E(xc)   -1659.15487 -1659.15489 -1662.45451    -0.00002     0.00000    -0.00000
  Local    -637.36280  -637.36406    26.36395    -0.00108    -0.00000     0.00000
  n-local  -212.90848  -215.38849  -253.04858     1.13415    -0.50984    -0.61961
  augment  3295.40528  3295.40613  3369.09864     0.00073     0.00000    -0.00000
  Kinetic  2863.15797  2862.87476  2954.71835     0.27830     0.33270     1.24970
  Fock        0.00000     0.00000     0.00000     0.00000     0.00000     0.00000
  -------------------------------------------------------------------------------------
  Total      16.88969    16.88969    15.08403     0.00000     0.00000     0.00000
  in kB      45.90019    45.90019    40.99307     0.00000     0.00000     0.00000
  external pressure =       44.26 kB  Pullay stress =        0.00 kB


 VOLUME and BASIS-vectors are now :
 -----------------------------------------------------------------------------
  energy-cutoff  :      450.00
  volume of cell :      589.55
      direct lattice vectors                 reciprocal lattice vectors
     8.091388612  0.000000000  0.000000000     0.123588181  0.071353670  0.000000000
    -4.045694306  7.007348090  0.000000000     0.000000000  0.142707339  0.000000000
     0.000000000  0.000000000 10.397785811     0.000000000  0.000000000  0.096174322

  length of vectors
     8.091388612  8.091388612 10.397785811     0.142707339  0.142707339  0.096174322


 FORCES acting on ions
    electron-ion (+dipol)            ewald-force                    non-local-force                 convergence-correction
 -----------------------------------------------------------------------------------------------
   0.123E+02 0.711E+01 0.101E+02   -.124E+02 -.713E+01 -.101E+02   0.451E-01 0.260E-01 -.141E-01   -.189E-02 -.109E-02 0.719E-04
   -.123E+02 -.711E+01 -.101E+02   0.124E+02 0.713E+01 0.101E+02   -.451E-01 -.260E-01 0.141E-01   0.189E-02 0.109E-02 -.719E-04
   -.123E+02 0.711E+01 0.101E+02   0.124E+02 -.713E+01 -.101E+02   -.451E-01 0.260E-01 -.141E-01   0.189E-02 -.109E-02 0.719E-04
   0.123E+02 -.711E+01 -.101E+02   -.124E+02 0.713E+01 0.101E+02   0.451E-01 -.260E-01 0.141E-01   -.189E-02 0.109E-02 -.719E-04
   0.300E-05 -.142E+02 0.101E+02   0.107E-05 0.143E+02 -.101E+02   -.217E-17 -.521E-01 -.141E-01   -.500E-10 0.218E-02 0.719E-04
   -.332E-05 0.142E+02 -.101E+02   -.647E-06 -.143E+02 0.101E+02   0.173E-17 0.521E-01 0.141E-01   0.206E-09 -.218E-02 -.719E-04
   -.318E-05 0.181E+01 0.427E+01   -.647E-06 -.183E+01 -.431E+01   0.434E-18 0.267E-01 0.376E-01   -.600E-10 -.140E-03 0.181E-02
   0.130E-05 -.181E+01 -.427E+01   -.910E-05 0.183E+01 0.431E+01   -.217E-18 -.267E-01 -.376E-01   0.533E-09 0.140E-03 -.181E-02
   -.157E+01 -.907E+00 0.427E+01   0.159E+01 0.915E+00 -.431E+01   -.231E-01 -.134E-01 0.376E-01   0.121E-03 0.700E-04 0.181E-02
   0.157E+01 0.907E+00 -.427E+01   -.159E+01 -.915E+00 0.431E+01   0.231E-01 0.134E-01 -.376E-01   -.121E-03 -.700E-04 -.181E-02
   0.157E+01 -.907E+00 0.427E+01   -.159E+01 0.915E+00 -.431E+01   0.231E-01 -.134E-01 0.376E-01   -.121E-03 0.700E-04 0.181E-02
   -.157E+01 0.907E+00 -.427E+01   0.159E+01 -.915E+00 0.431E+01   -.231E-01 0.134E-01 -.376E-01   0.121E-03 -.700E-04 -.181E-02
   -.318E-05 0.162E-05 0.288E+01   -.647E-06 0.213E-05 -.285E+01   -.623E-18 0.542E-19 -.336E-01   0.145E-08 -.179E-07 0.266E-02
   0.129E-05 -.344E-05 -.288E+01   -.909E-05 -.943E-05 0.285E+01   0.136E-18 -.542E-19 0.336E-01   -.985E-09 0.127E-07 -.266E-02
   0.283E-05 -.204E-05 0.354E+01   0.111E-05 -.123E-06 -.358E+01   0.217E-18 0.108E-18 0.762E-01   -.119E-10 0.598E-08 0.237E-03
   -.318E-05 0.161E-05 -.354E+01   -.647E-06 0.214E-05 0.358E+01   -.217E-18 -.108E-18 -.762E-01   0.168E-09 -.172E-07 -.237E-03
   0.629E+00 0.363E+00 0.170E+01   -.634E+00 -.366E+00 -.172E+01   0.109E-01 0.628E-02 0.303E-02   -.154E-04 -.891E-05 0.674E-03
   -.629E+00 -.363E+00 -.170E+01   0.634E+00 0.366E+00 0.172E+01   -.109E-01 -.628E-02 -.303E-02   0.154E-04 0.891E-05 -.674E-03
   -.629E+00 0.363E+00 0.170E+01   0.634E+00 -.366E+00 -.172E+01   -.109E-01 0.628E-02 0.303E-02   0.154E-04 -.891E-05 0.674E-03
   0.629E+00 -.363E+00 -.170E+01   -.634E+00 0.366E+00 0.172E+01   0.109E-01 -.628E-02 -.303E-02   -.154E-04 0.891E-05 -.674E-03
   -.209E-07 -.726E+00 0.170E+01   0.365E-06 0.732E+00 -.172E+01   0.434E-17 -.126E-01 0.303E-02   0.162E-08 0.178E-04 0.674E-03
   0.302E-07 0.726E+00 -.170E+01   -.627E-06 -.732E+00 0.172E+01   -.434E-17 0.126E-01 -.303E-02   -.153E-08 -.178E-04 -.674E-03
   0.647E-07 0.567E+01 0.400E+01   -.431E-06 -.571E+01 -.402E+01   -.173E-17 0.134E+00 0.913E-01   -.170E-08 -.886E-03 -.171E-04
   -.179E-07 -.567E+01 -.400E+01   0.356E-06 0.571E+01 0.402E+01   0.694E-17 -.134E+00 -.913E-01   0.175E-08 0.886E-03 0.171E-04
   -.491E+01 -.283E+01 0.400E+01   0.494E+01 0.285E+01 -.402E+01   -.116E+00 -.668E-01 0.913E-01   0.767E-03 0.443E-03 -.171E-04
   0.491E+01 0.283E+01 -.400E+01   -.494E+01 -.285E+01 0.402E+01   0.116E+00 0.668E-01 -.913E-01   -.767E-03 -.443E-03 0.171E-04
   0.491E+01 -.283E+01 0.400E+01   -.494E+01 0.285E+01 -.402E+01   0.116E+00 -.668E-01 0.913E-01   -.767E-03 0.443E-03 -.171E-04
   -.491E+01 0.283E+01 -.400E+01   0.494E+01 -.285E+01 0.402E+01   -.116E+00 0.668E-01 -.913E-01   0.767E-03 -.443E-03 0.171E-04
   0.640E-07 0.757E-07 0.142E+01   -.431E-06 0.641E-06 -.143E+01   0.000E+00 -.520E-17 0.718E-02   0.725E-09 -.441E-08 0.216E-03
   -.302E-07 0.430E-08 -.142E+01   0.370E-06 -.602E-06 0.143E+01   0.000E+00 0.520E-17 -.718E-02   -.678E-09 0.326E-08 -.216E-03
   -.267E-07 0.956E-08 0.116E+01   0.367E-06 -.604E-06 -.114E+01   -.520E-17 0.000E+00 0.744E-02   0.174E-08 0.186E-08 0.104E-02
   0.341E-07 0.243E-06 -.116E+01   -.627E-06 0.175E-05 0.114E+01   0.173E-17 0.000E+00 -.744E-02   -.165E-08 -.636E-08 -.104E-02
   0.573E-06 0.289E-06 0.224E-10   0.228E-05 -.722E-06 -.198E-12   0.000E+00 0.000E+00 0.000E+00   -.123E-07 0.738E-11 -.550E-12
   -.303E-06 0.795E-06 -.544E-06   -.355E-05 0.264E-05 -.360E-05   0.000E+00 0.000E+00 0.000E+00   0.192E-09 -.720E-08 0.328E-08
   -.264E-08 0.289E-06 -.229E-10   -.154E-05 -.722E-06 -.136E-13   -.165E-23 0.000E+00 0.000E+00   0.120E-07 0.861E-11 -.910E-12
   0.902E-02 -.521E-02 0.357E+01   -.840E-07 -.722E-06 -.357E+01   -.460E-02 0.266E-02 0.101E-01   0.778E-04 -.449E-04 0.148E-02
   -.902E-02 0.521E-02 -.357E+01   0.228E-05 -.722E-06 0.357E+01   0.460E-02 -.266E-02 -.101E-01   -.778E-04 0.449E-04 -.148E-02
   0.157E-06 0.104E-01 0.357E+01   -.487E-06 -.490E-06 -.357E+01   -.542E-19 -.531E-02 0.101E-01   -.450E-09 0.898E-04 0.148E-02
   -.304E-06 -.104E-01 -.357E+01   -.355E-05 0.264E-05 0.357E+01   -.163E-18 0.531E-02 -.101E-01   0.699E-09 -.898E-04 -.148E-02
   -.902E-02 -.521E-02 0.357E+01   -.681E-06 -.722E-06 -.357E+01   0.460E-02 0.266E-02 0.101E-01   -.778E-04 -.449E-04 0.148E-02
   0.902E-02 0.521E-02 -.357E+01   -.154E-05 -.722E-06 0.357E+01   -.460E-02 -.266E-02 -.101E-01   0.778E-04 0.449E-04 -.148E-02
   -.304E-06 -.217E-06 0.544E-06   -.355E-05 -.409E-05 0.360E-05   -.265E-22 0.000E+00 0.000E+00   0.195E-09 0.722E-08 -.328E-08
   0.154E-06 0.248E-06 0.142E+02   -.487E-06 -.955E-06 -.143E+02   -.542E-19 0.000E+00 0.267E+00   -.960E-10 0.459E-08 -.569E-03
   -.301E-06 -.211E-06 -.142E+02   -.355E-05 -.409E-05 0.143E+02   0.678E-19 0.000E+00 -.267E+00   0.350E-09 0.713E-08 0.569E-03
   0.217E-06 0.289E-06 -.351E-11   -.840E-07 -.722E-06 -.355E-14   -.165E-23 0.000E+00 0.000E+00   -.772E-08 0.647E-11 0.425E-12
   0.157E-06 0.324E-06 0.789E-07   -.487E-06 -.490E-06 0.525E-06   0.000E+00 0.000E+00 0.000E+00   0.560E-10 -.448E-08 -.285E-08
   0.127E-06 0.289E-06 -.138E-10   -.681E-06 -.722E-06 -.462E-13   0.000E+00 0.000E+00 0.000E+00   0.764E-08 0.841E-11 0.111E-11
   0.179E-06 0.291E-06 -.902E-07   -.556E-06 -.109E-05 -.600E-06   -.662E-23 0.000E+00 0.000E+00   0.706E-10 0.525E-08 0.336E-08
 -----------------------------------------------------------------------------------------------
   -.649E-05 0.121E-05 -.817E-07   -.118E-12 -.616E-14 -.391E-13   -.182E-16 -.139E-16 0.000E+00   0.572E-10 0.810E-09 0.557E-09
 
 
 POSITION                                       TOTAL-FORCE (eV/Angst)
 -----------------------------------------------------------------------------------
      2.02285      5.83946      3.89917         0.005263      0.003039      0.006024
      2.02285      1.16789      6.49862        -0.005263     -0.003039     -0.006024
     -2.02285      5.83946      3.89917        -0.005263      0.003039      0.006024
      6.06854      1.16789      6.49862         0.005263     -0.003039     -0.006024
     -0.00000      2.33578      3.89917         0.000000     -0.006077      0.006024
      4.04569      4.67157      6.49862        -0.000000      0.006077     -0.006024
      4.04569      4.67157      1.29972        -0.000000      0.010024      0.002302
     -0.00000      2.33578      9.09806         0.000000     -0.010024     -0.002302
      2.02285      1.16789      1.29972        -0.008681     -0.005012      0.002302
      2.02285      5.83946      9.09806         0.008681      0.005012     -0.002302
      6.06854      1.16789      1.29972         0.008681     -0.005012      0.002302
     -2.02285      5.83946      9.09806        -0.008681      0.005012     -0.002302
      0.00000      4.67157      1.29972         0.000000      0.000000      0.003112
      4.04569      2.33578      9.09806        -0.000000      0.000000     -0.003112
      4.04569      2.33578      3.89917        -0.000000     -0.000000      0.032325
      0.00000      4.67157      6.49862         0.000000      0.000000     -0.032325
      2.02285      5.83946      1.29972         0.005846      0.003375     -0.023672
      2.02285      1.16789      9.09806        -0.005846     -0.003375      0.023672
     -2.02285      5.83946      1.29972        -0.005846      0.003375     -0.023672
      6.06854      1.16789      9.09806         0.005846     -0.003375      0.023672
     -0.00000      2.33578      1.29972        -0.000000     -0.006750     -0.023672
      4.04569      4.67157      9.09806         0.000000      0.006750      0.023672
      4.04569      4.67157      3.89917        -0.000000      0.092674      0.071318
     -0.00000      2.33578      6.49862         0.000000     -0.092674     -0.071318
      2.02285      1.16789      3.89917        -0.080258     -0.046337      0.071318
      2.02285      5.83946      6.49862         0.080258      0.046337     -0.071318
      6.06854      1.16789      3.89917         0.080258     -0.046337      0.071318
     -2.02285      5.83946      6.49862        -0.080258      0.046337     -0.071318
      0.00000      4.67157      3.89917        -0.000000      0.000000     -0.002534
      4.04569      2.33578      6.49862         0.000000     -0.000000      0.002534
      4.04569      2.33578      1.29972         0.000000     -0.000000      0.032488
      0.00000      4.67157      9.09806        -0.000000      0.000000     -0.032488
      2.02285      3.50367      0.00000         0.000000      0.000000      0.000000
      4.04569      0.00000      0.00000         0.000000      0.000000      0.000000
     -2.02285      3.50367      0.00000        -0.000000      0.000000      0.000000
      2.02285      3.50367      2.59945         0.004496     -0.002596      0.008802
      2.02285      3.50367      7.79834        -0.004496      0.002596     -0.008802
      4.04569      0.00000      2.59945        -0.000000      0.005192      0.008802
      4.04569      0.00000      7.79834         0.000000     -0.005192     -0.008802
     -2.02285      3.50367      2.59945        -0.004496     -0.002596      0.008802
     -2.02285      3.50367      7.79834         0.004496      0.002596     -0.008802
      0.00000      0.00000      0.00000         0.000000      0.000000      0.000000
      0.00000      0.00000      2.59945        -0.000000     -0.000000      0.161263
      0.00000      0.00000      7.79834         0.000000      0.000000     -0.161263
      2.02285      3.50367      5.19889        -0.000000      0.000000      0.000000
      4.04569      0.00000      5.19889        -0.000000      0.000000      0.000000
     -2.02285      3.50367      5.19889         0.000000      0.000000      0.000000
      0.00000      0.00000      5.19889         0.000000      0.000000      0.000000
 -----------------------------------------------------------------------------------
    total drift:                               -0.000006      0.000001     -0.000000


--------------------------------------------------------------------------------------------------------



  FREE ENERGIE OF THE ION-ELECTRON SYSTEM (eV)
  ---------------------------------------------------
  free  energy   TOTEN  =      -312.92029805 eV

  energy  without entropy=     -312.89610676  energy(sigma->0) =     -312.91223428
 


--------------------------------------------------------------------------------------------------------


    POTLOK:  cpu time    0.1810: real time    0.2083


--------------------------------------------------------------------------------------------------------


     LOOP+:  cpu time14226.7022: real time14284.3023
    4ORBIT:  cpu time    0.0000: real time    0.0000
 


 total charge     
 
# of ion       s       p       d       tot
------------------------------------------
    1        0.481   0.551   8.467   9.499
    2        0.481   0.551   8.467   9.499
    3        0.481   0.551   8.467   9.499
    4        0.481   0.551   8.467   9.499
    5        0.481   0.551   8.467   9.499
    6        0.481   0.551   8.467   9.499
    7        0.483   0.555   8.466   9.504
    8        0.483   0.555   8.466   9.504
    9        0.483   0.555   8.466   9.504
   10        0.483   0.555   8.466   9.504
   11        0.483   0.555   8.466   9.504
   12        0.483   0.555   8.466   9.504
   13        0.483   0.555   8.465   9.504
   14        0.483   0.555   8.465   9.504
   15        0.483   0.553   8.468   9.504
   16        0.483   0.553   8.468   9.504
   17        1.085   1.298   0.135   2.518
   18        1.085   1.298   0.135   2.518
   19        1.085   1.298   0.135   2.518
   20        1.085   1.298   0.135   2.518
   21        1.085   1.298   0.135   2.518
   22        1.085   1.298   0.135   2.518
   23        1.085   1.293   0.135   2.513
   24        1.085   1.293   0.135   2.513
   25        1.085   1.293   0.135   2.513
   26        1.085   1.293   0.135   2.513
   27        1.085   1.293   0.135   2.513
   28        1.085   1.293   0.135   2.513
   29        1.085   1.297   0.135   2.518
   30        1.085   1.297   0.135   2.518
   31        1.085   1.299   0.135   2.519
   32        1.085   1.299   0.135   2.519
   33        0.289   0.343   5.110   5.741
   34        0.289   0.343   5.110   5.741
   35        0.289   0.343   5.110   5.741
   36        0.289   0.343   5.111   5.742
   37        0.289   0.343   5.111   5.742
   38        0.289   0.343   5.111   5.742
   39        0.289   0.343   5.111   5.742
   40        0.289   0.343   5.111   5.742
   41        0.289   0.343   5.111   5.742
   42        0.288   0.342   5.118   5.747
   43        0.288   0.344   5.098   5.730
   44        0.288   0.344   5.098   5.730
   45        0.289   0.343   5.108   5.741
   46        0.289   0.343   5.108   5.741
   47        0.289   0.343   5.108   5.741
   48        0.365   0.447   6.298   7.110
--------------------------------------------------
tot         29.771  35.180 220.561 285.512
 


 magnetization (x)
 
# of ion       s       p       d       tot
------------------------------------------
    1       -0.022  -0.034   0.159   0.103
    2       -0.022  -0.034   0.159   0.103
    3       -0.022  -0.034   0.159   0.103
    4       -0.022  -0.034   0.159   0.103
    5       -0.022  -0.034   0.159   0.103
    6       -0.022  -0.034   0.159   0.103
    7       -0.023  -0.034   0.162   0.105
    8       -0.023  -0.034   0.162   0.105
    9       -0.023  -0.034   0.162   0.105
   10       -0.023  -0.034   0.162   0.105
   11       -0.023  -0.034   0.162   0.105
   12       -0.023  -0.034   0.162   0.105
   13       -0.023  -0.033   0.158   0.101
   14       -0.023  -0.033   0.158   0.101
   15       -0.022  -0.032   0.168   0.113
   16       -0.022  -0.032   0.168   0.113
   17       -0.016  -0.092   0.005  -0.103
   18       -0.016  -0.092   0.005  -0.103
   19       -0.016  -0.092   0.005  -0.103
   20       -0.016  -0.092   0.005  -0.103
   21       -0.016  -0.092   0.005  -0.103
   22       -0.016  -0.092   0.005  -0.103
   23       -0.015  -0.088   0.004  -0.099
   24       -0.015  -0.088   0.004  -0.099
   25       -0.015  -0.088   0.004  -0.099
   26       -0.015  -0.088   0.004  -0.099
   27       -0.015  -0.088   0.004  -0.099
   28       -0.015  -0.088   0.004  -0.099
   29       -0.015  -0.093   0.005  -0.103
   30       -0.015  -0.093   0.005  -0.103
   31       -0.016  -0.094   0.005  -0.105
   32       -0.016  -0.094   0.005  -0.105
   33        0.019   0.015   2.711   2.746
   34        0.019   0.015   2.711   2.746
   35        0.019   0.015   2.711   2.746
   36        0.019   0.016   2.706   2.741
   37        0.019   0.016   2.706   2.741
   38        0.019   0.016   2.706   2.741
   39        0.019   0.016   2.706   2.741
   40        0.019   0.016   2.706   2.741
   41        0.019   0.016   2.706   2.741
   42        0.018   0.015   2.645   2.677
   43        0.020   0.016   2.805   2.841
   44        0.020   0.016   2.805   2.841
   45        0.018   0.016   2.713   2.747
   46        0.018   0.016   2.713   2.747
   47        0.018   0.016   2.713   2.747
   48        0.014   0.004   2.205   2.224
--------------------------------------------------
tot         -0.309  -1.747  45.617  43.561
 

 total amount of memory used by VASP MPI-rank0   584209. kBytes
=======================================================================

   base      :      30000. kBytes
   nonl-proj :      86695. kBytes
   fftplans  :       3906. kBytes
   grid      :      11074. kBytes
   one-center:        248. kBytes
   wavefun   :     452286. kBytes
 
  
  
 General timing and accounting informations for this job:
 ========================================================
  
                  Total CPU time used (sec):    14466.380
                            User time (sec):    14340.101
                          System time (sec):      126.279
                         Elapsed time (sec):    14532.266
  
                   Maximum memory used (kb):      840372.
                   Average memory used (kb):           0.
  
                          Minor page faults:        76507
                          Major page faults:          695
                 Voluntary context switches:         7231
