 running on   24 total cores
 distrk:  each k-point on   24 cores,    1 groups
 distr:  one band on    6 cores,    4 groups
 using from now: INCAR     
 vasp.6.1.1 19Jun20 (build Nov 30 2020 11:51:22) complex                        
  
 POSCAR found type information on POSCAR NiGeMnFe
 POSCAR found :  4 types and      48 ions
 scaLAPACK will be used
 -----------------------------------------------------------------------------
|                                                                             |
|               ----> ADVICE to this user running VASP <----                  |
|                                                                             |
|     You have a (more or less) 'large supercell' and for larger cells it     |
|     might be more efficient to use real-space projection operators.         |
|     Therefore, try LREAL= Auto in the INCAR file.                           |
|     Mind: For very accurate calculation, you might also keep the            |
|     reciprocal projection scheme (i.e. LREAL=.FALSE.).                      |
|                                                                             |
 -----------------------------------------------------------------------------

 LDA part: xc-table for Pade appr. of Perdew
 POSCAR, INCAR and KPOINTS ok, starting setup
 FFT: planning ...
 WAVECAR not read
 entering main loop
       N       E                     dE             d eps       ncg     rms          rms(c)
DAV:   1     0.282865848301E+04    0.28287E+04   -0.10829E+05 99360   0.105E+03
DAV:   2     0.179440423991E+03   -0.26492E+04   -0.23616E+04 99360   0.267E+02
DAV:   3    -0.262054550449E+03   -0.44149E+03   -0.36309E+03 99480   0.125E+02
DAV:   4    -0.294100376331E+03   -0.32046E+02   -0.30611E+02121656   0.397E+01
DAV:   5    -0.294927653149E+03   -0.82728E+00   -0.82532E+00121536   0.661E+00    0.103E+02
DAV:   6    -0.374120404244E+03   -0.79193E+02   -0.21810E+02125576   0.103E+02    0.109E+02
DAV:   7    -0.316586809541E+03    0.57534E+02   -0.18424E+02122112   0.935E+01    0.709E+01
DAV:   8    -0.333926493530E+03   -0.17340E+02   -0.38067E+01139056   0.546E+01    0.789E+01
DAV:   9    -0.317351492052E+03    0.16575E+02   -0.33291E+01141400   0.435E+01    0.441E+01
DAV:  10    -0.321909162594E+03   -0.45577E+01   -0.27228E+01131344   0.480E+01    0.596E+01
DAV:  11    -0.306974417760E+03    0.14935E+02   -0.14339E+01148776   0.338E+01    0.248E+01
DAV:  12    -0.314377203201E+03   -0.74028E+01   -0.10322E+01140032   0.211E+01    0.289E+01
DAV:  13    -0.311025308879E+03    0.33519E+01   -0.46706E+00138800   0.214E+01    0.133E+01
DAV:  14    -0.313008060138E+03   -0.19828E+01   -0.27065E+00156696   0.142E+01    0.193E+01
DAV:  15    -0.312873283220E+03    0.13478E+00   -0.30205E+00150784   0.133E+01    0.844E+00
DAV:  16    -0.313043637653E+03   -0.17035E+00   -0.98110E-01163792   0.651E+00    0.721E+00
DAV:  17    -0.312959078171E+03    0.84559E-01   -0.35537E-01134248   0.519E+00    0.469E+00
DAV:  18    -0.313026786433E+03   -0.67708E-01   -0.15542E-01149072   0.272E+00    0.341E+00
DAV:  19    -0.313073146283E+03   -0.46360E-01   -0.79681E-02136728   0.234E+00    0.324E+00
DAV:  20    -0.313094678835E+03   -0.21533E-01   -0.42882E-02128408   0.174E+00    0.308E+00
DAV:  21    -0.313143737196E+03   -0.49058E-01   -0.51224E-02172600   0.145E+00    0.314E+00
DAV:  22    -0.313141576699E+03    0.21605E-02   -0.43656E-02141784   0.205E+00    0.266E+00
DAV:  23    -0.313109764865E+03    0.31812E-01   -0.23197E-02143280   0.121E+00    0.114E+00
DAV:  24    -0.313109930905E+03   -0.16604E-03   -0.12093E-02147336   0.841E-01    0.765E-01
DAV:  25    -0.313108323190E+03    0.16077E-02   -0.57864E-03137336   0.628E-01    0.371E-01
DAV:  26    -0.313109579156E+03   -0.12560E-02   -0.21702E-03156680   0.343E-01    0.394E-01
DAV:  27    -0.313109374249E+03    0.20491E-03   -0.10845E-03143904   0.299E-01    0.312E-01
DAV:  28    -0.313109315509E+03    0.58740E-04   -0.40203E-04153448   0.136E-01    0.210E-01
DAV:  29    -0.313109327940E+03   -0.12431E-04   -0.26155E-04134008   0.814E-02    0.926E-02
DAV:  30    -0.313109355930E+03   -0.27991E-04   -0.13443E-04163776   0.595E-02    0.176E-02
DAV:  31    -0.313109359422E+03   -0.34914E-05   -0.44982E-05124376   0.210E-02    0.143E-02
DAV:  32    -0.313109360340E+03   -0.91855E-06   -0.49610E-06 94224   0.110E-02
   1 F= -.31310936E+03 E0= -.31309728E+03  d E =-.362283E-01  mag=    45.5610
