 vasp.6.1.1 19Jun20 (build Nov 30 2020 11:51:22) complex                        
  
 executed on             LinuxIFC date 2021.03.25  22:20:14
 running on   24 total cores
 distrk:  each k-point on   24 cores,    1 groups
 distr:  one band on NCORE=   6 cores,    4 groups


--------------------------------------------------------------------------------------------------------


 INCAR:
 POTCAR:    PAW_PBE Ni 02Aug2007                  
 POTCAR:    PAW_PBE Ge 05Jan2001                  
 POTCAR:    PAW_PBE Mn 06Sep2000                  
 POTCAR:    PAW_PBE Fe 06Sep2000                  
 POTCAR:    PAW_PBE Ni 02Aug2007                  
   SHA256 =  0534bc51ca8003dfef23f56753fef9fdd3e22eac8d719fccacb59f3e6b7a69c7 Ni/POTCAR             
   COPYR  = (c) Copyright 02Aug2007 Georg Kresse                                                    
   COPYR  = This file is part of the software VASP. Any use, copying, and all other rights are regul
   COPYR  = If you do not have a valid VASP license, you may not use, copy or distribute this file. 
   VRHFIN =Ni:                                                                                      
   LEXCH  = PE                                                                                      
   EATOM  =  1077.6739 eV,   79.2068 Ry                                                             
                                                                                                    
   TITEL  = PAW_PBE Ni 02Aug2007                                                                    
   LULTRA =        F    use ultrasoft PP ?                                                          
   IUNSCR =        1    unscreen: 0-lin 1-nonlin 2-no                                               
   RPACOR =    2.000    partial core radius                                                         
   POMASS =   58.690; ZVAL   =   10.000    mass and valenz                                          
   RCORE  =    2.300    outmost cutoff radius                                                       
   RWIGS  =    2.430; RWIGS  =    1.286    wigner-seitz radius (au A)                               
   ENMAX  =  269.532; ENMIN  =  202.149 eV                                                          
   RCLOC  =    1.201    cutoff for local pot                                                        
   LCOR   =        T    correct aug charges                                                         
   LPAW   =        T    paw PP                                                                      
   EAUG   =  544.565                                                                                
   DEXC   =    0.000                                                                                
   RMAX   =    2.357    core radius for proj-oper                                                   
   RAUG   =    1.300    factor for augmentation sphere                                              
   RDEP   =    2.390    radius for radial grids                                                     
   RDEPT  =    1.838    core radius for aug-charge                                                  
                                                                                                    
   Atomic configuration                                                                             
    9 entries                                                                                       
     n  l   j            E        occ.                                                              
     1  0  0.50     -8206.4253   2.0000                                                             
     2  0  0.50      -976.1748   2.0000                                                             
     2  1  1.50      -839.0571   6.0000                                                             
     3  0  0.50      -105.9991   2.0000                                                             
     3  1  1.50       -66.4603   6.0000                                                             
     3  2  2.50        -4.6458   9.0000                                                             
     4  0  0.50        -4.4926   1.0000                                                             
     4  1  1.50        -4.0817   0.0000                                                             
     4  3  2.50        -1.3606   0.0000                                                             
   Description                                                                                      
     l       E           TYP  RCUT    TYP  RCUT                                                     
     2     -4.6457903     23  2.300                                                                 
     2     -6.0063729     23  2.300                                                                 
     0     -4.4925590     23  2.300                                                                 
     0      5.0102601     23  2.300                                                                 
     1     -2.7211652     23  2.300                                                                 
     1     16.5183231     23  2.300                                                                 
  local pseudopotential read in
  partial core-charges read in
  partial kinetic energy density read in
  atomic valenz-charges read in
  non local Contribution for L=           2  read in
    real space projection operators read in
  non local Contribution for L=           2  read in
    real space projection operators read in
  non local Contribution for L=           0  read in
    real space projection operators read in
  non local Contribution for L=           0  read in
    real space projection operators read in
  non local Contribution for L=           1  read in
    real space projection operators read in
  non local Contribution for L=           1  read in
    real space projection operators read in
    PAW grid and wavefunctions read in
 
   number of l-projection  operators is LMAX  =           6
   number of lm-projection operators is LMMAX =          18
 
 POTCAR:    PAW_PBE Ge 05Jan2001                  
   SHA256 =  7ff11deedcda39f1950abeda971a84a1f98a719a97bc9679a0df455c008734f8 Ge/POTCAR             
   COPYR  = (c) Copyright 05Jan2001 Georg Kresse                                                    
   COPYR  = This file is part of the software VASP. Any use, copying, and all other rights are regul
   COPYR  = If you do not have a valid VASP license, you may not use, copy or distribute this file. 
   VRHFIN =Ge: s2p2                                                                                 
   LEXCH  = PE                                                                                      
   EATOM  =   104.9960 eV,    7.7170 Ry                                                             
                                                                                                    
   TITEL  = PAW_PBE Ge 05Jan2001                                                                    
   LULTRA =        F    use ultrasoft PP ?                                                          
   IUNSCR =        1    unscreen: 0-lin 1-nonlin 2-no                                               
   RPACOR =    2.170    partial core radius                                                         
   POMASS =   72.610; ZVAL   =    4.000    mass and valenz                                          
   RCORE  =    2.300    outmost cutoff radius                                                       
   RWIGS  =    2.300; RWIGS  =    1.217    wigner-seitz radius (au A)                               
   ENMAX  =  173.807; ENMIN  =  130.355 eV                                                          
   ICORE  =        3    local potential                                                             
   LCOR   =        T    correct aug charges                                                         
   LPAW   =        T    paw PP                                                                      
   EAUG   =  385.843                                                                                
   DEXC   =    0.000                                                                                
   RMAX   =    2.342    core radius for proj-oper                                                   
   RAUG   =    1.300    factor for augmentation sphere                                              
   RDEP   =    2.318    radius for radial grids                                                     
   RDEPT  =    2.103    core radius for aug-charge                                                  
                                                                                                    
   Atomic configuration                                                                             
   10 entries                                                                                       
     n  l   j            E        occ.                                                              
     1  0  0.50    -10959.8463   2.0000                                                             
     2  0  0.50     -1371.6056   2.0000                                                             
     2  1  1.50     -1198.4791   6.0000                                                             
     3  0  0.50      -168.4733   2.0000                                                             
     3  1  1.50      -115.6019   6.0000                                                             
     3  2  2.50       -29.3106  10.0000                                                             
     4  0  0.50       -11.7309   2.0000                                                             
     4  1  0.50        -3.8952   2.0000                                                             
     4  2  1.50        -4.0817   0.0000                                                             
     4  3  2.50        -4.0817   0.0000                                                             
   Description                                                                                      
     l       E           TYP  RCUT    TYP  RCUT                                                     
     0    -11.7309493     23  2.300                                                                 
     0     -7.4578696     23  2.300                                                                 
     1     -3.8952261     23  2.300                                                                 
     1      6.1178114     23  2.300                                                                 
     2     -4.0817478     23  2.300                                                                 
     3     -1.3605826      7  2.300                                                                 
  local pseudopotential read in
  partial core-charges read in
  partial kinetic energy density read in
  atomic valenz-charges read in
  non local Contribution for L=           0  read in
    real space projection operators read in
  non local Contribution for L=           0  read in
    real space projection operators read in
  non local Contribution for L=           1  read in
    real space projection operators read in
  non local Contribution for L=           1  read in
    real space projection operators read in
  non local Contribution for L=           2  read in
    real space projection operators read in
    PAW grid and wavefunctions read in
 
   number of l-projection  operators is LMAX  =           5
   number of lm-projection operators is LMMAX =          13
 
 POTCAR:    PAW_PBE Mn 06Sep2000                  
   SHA256 =  791c87526310ff945dc83749a51ee60ee299d345ff72743aeb14609b9ed68bfc Mn/POTCAR             
   COPYR  = (c) Copyright 06Sep2000 Georg Kresse                                                    
   COPYR  = This file is part of the software VASP. Any use, copying, and all other rights are regul
   COPYR  = If you do not have a valid VASP license, you may not use, copy or distribute this file. 
   VRHFIN =Mn: d6 s1                                                                                
   LEXCH  = PE                                                                                      
   EATOM  =   416.7541 eV,   30.6306 Ry                                                             
                                                                                                    
   TITEL  = PAW_PBE Mn 06Sep2000                                                                    
   LULTRA =        F    use ultrasoft PP ?                                                          
   IUNSCR =        1    unscreen: 0-lin 1-nonlin 2-no                                               
   RPACOR =    2.000    partial core radius                                                         
   POMASS =   54.938; ZVAL   =    7.000    mass and valenz                                          
   RCORE  =    2.300    outmost cutoff radius                                                       
   RWIGS  =    2.500; RWIGS  =    1.323    wigner-seitz radius (au A)                               
   ENMAX  =  269.864; ENMIN  =  202.398 eV                                                          
   RCLOC  =    1.725    cutoff for local pot                                                        
   LCOR   =        T    correct aug charges                                                         
   LPAW   =        T    paw PP                                                                      
   EAUG   =  500.711                                                                                
   DEXC   =    0.000                                                                                
   RMAX   =    2.343    core radius for proj-oper                                                   
   RAUG   =    1.300    factor for augmentation sphere                                              
   RDEP   =    2.338    radius for radial grids                                                     
   RDEPT  =    1.911    core radius for aug-charge                                                  
                                                                                                    
   Atomic configuration                                                                             
    9 entries                                                                                       
     n  l   j            E        occ.                                                              
     1  0  0.50     -6424.8288   2.0000                                                             
     2  0  0.50      -739.1154   2.0000                                                             
     2  1  1.50      -625.3949   6.0000                                                             
     3  0  0.50       -81.6100   2.0000                                                             
     3  1  1.50       -50.4667   6.0000                                                             
     3  2  2.50        -3.3745   6.0000                                                             
     4  0  0.50        -4.1331   1.0000                                                             
     4  1  0.50        -4.0817   0.0000                                                             
     4  3  2.50        -1.3606   0.0000                                                             
   Description                                                                                      
     l       E           TYP  RCUT    TYP  RCUT                                                     
     2     -3.3744664     23  2.300                                                                 
     2     -4.7350490     23  2.300                                                                 
     0     -4.1331408     23  2.300                                                                 
     0      7.6656614     23  2.300                                                                 
     1     -2.7211652     23  2.300                                                                 
     1     20.4087390     23  2.300                                                                 
  local pseudopotential read in
  partial core-charges read in
  partial kinetic energy density read in
  atomic valenz-charges read in
  non local Contribution for L=           2  read in
    real space projection operators read in
  non local Contribution for L=           2  read in
    real space projection operators read in
  non local Contribution for L=           0  read in
    real space projection operators read in
  non local Contribution for L=           0  read in
    real space projection operators read in
  non local Contribution for L=           1  read in
    real space projection operators read in
  non local Contribution for L=           1  read in
    real space projection operators read in
    PAW grid and wavefunctions read in
 
   number of l-projection  operators is LMAX  =           6
   number of lm-projection operators is LMMAX =          18
 
 POTCAR:    PAW_PBE Fe 06Sep2000                  
   SHA256 =  cd5a22d9368cc8b5cc476bea79732366149640da08ac9009b0e1b7fc627eea28 Fe/POTCAR             
   COPYR  = (c) Copyright 06Sep2000 Georg Kresse                                                    
   COPYR  = This file is part of the software VASP. Any use, copying, and all other rights are regul
   COPYR  = If you do not have a valid VASP license, you may not use, copy or distribute this file. 
   VRHFIN =Fe:  d7 s1                                                                               
   LEXCH  = PE                                                                                      
   EATOM  =   594.3153 eV,   43.6809 Ry                                                             
                                                                                                    
   TITEL  = PAW_PBE Fe 06Sep2000                                                                    
   LULTRA =        F    use ultrasoft PP ?                                                          
   IUNSCR =        1    unscreen: 0-lin 1-nonlin 2-no                                               
   RPACOR =    2.000    partial core radius                                                         
   POMASS =   55.847; ZVAL   =    8.000    mass and valenz                                          
   RCORE  =    2.300    outmost cutoff radius                                                       
   RWIGS  =    2.460; RWIGS  =    1.302    wigner-seitz radius (au A)                               
   ENMAX  =  267.882; ENMIN  =  200.911 eV                                                          
   RCLOC  =    1.701    cutoff for local pot                                                        
   LCOR   =        T    correct aug charges                                                         
   LPAW   =        T    paw PP                                                                      
   EAUG   =  511.368                                                                                
   DEXC   =    0.000                                                                                
   RMAX   =    2.356    core radius for proj-oper                                                   
   RAUG   =    1.300    factor for augmentation sphere                                              
   RDEP   =    2.442    radius for radial grids                                                     
   RDEPT  =    1.890    core radius for aug-charge                                                  
                                                                                                    
   Atomic configuration                                                                             
    9 entries                                                                                       
     n  l   j            E        occ.                                                              
     1  0  0.50     -6993.8440   2.0000                                                             
     2  0  0.50      -814.6047   2.0000                                                             
     2  1  1.50      -693.3689   6.0000                                                             
     3  0  0.50       -89.4732   2.0000                                                             
     3  1  1.50       -55.6373   6.0000                                                             
     3  2  2.50        -3.8151   7.0000                                                             
     4  0  0.50        -4.2551   1.0000                                                             
     4  1  1.50        -3.4015   0.0000                                                             
     4  3  2.50        -1.3606   0.0000                                                             
   Description                                                                                      
     l       E           TYP  RCUT    TYP  RCUT                                                     
     2     -3.8151135     23  2.300                                                                 
     2     -5.1756961     23  2.300                                                                 
     0     -4.2550963     23  2.300                                                                 
     0      7.2035603     23  2.300                                                                 
     1     -2.7211652     23  2.300                                                                 
     1     18.4316424     23  2.300                                                                 
  local pseudopotential read in
  partial core-charges read in
  partial kinetic energy density read in
  atomic valenz-charges read in
  non local Contribution for L=           2  read in
    real space projection operators read in
  non local Contribution for L=           2  read in
    real space projection operators read in
  non local Contribution for L=           0  read in
    real space projection operators read in
  non local Contribution for L=           0  read in
    real space projection operators read in
  non local Contribution for L=           1  read in
    real space projection operators read in
  non local Contribution for L=           1  read in
    real space projection operators read in
    PAW grid and wavefunctions read in
 
   number of l-projection  operators is LMAX  =           6
   number of lm-projection operators is LMMAX =          18
 
 -----------------------------------------------------------------------------
|                                                                             |
|               ----> ADVICE to this user running VASP <----                  |
|                                                                             |
|     You have a (more or less) 'large supercell' and for larger cells it     |
|     might be more efficient to use real-space projection operators.         |
|     Therefore, try LREAL= Auto in the INCAR file.                           |
|     Mind: For very accurate calculation, you might also keep the            |
|     reciprocal projection scheme (i.e. LREAL=.FALSE.).                      |
|                                                                             |
 -----------------------------------------------------------------------------

  PAW_PBE Ni 02Aug2007                  :
 energy of atom  1       EATOM=-1077.6739
 kinetic energy error for atom=    0.0038 (will be added to EATOM!!)
  PAW_PBE Ge 05Jan2001                  :
 energy of atom  2       EATOM= -104.9960
 kinetic energy error for atom=    0.0003 (will be added to EATOM!!)
  PAW_PBE Mn 06Sep2000                  :
 energy of atom  3       EATOM= -416.7541
 kinetic energy error for atom=    0.0033 (will be added to EATOM!!)
  PAW_PBE Fe 06Sep2000                  :
 energy of atom  4       EATOM= -594.3153
 kinetic energy error for atom=    0.0034 (will be added to EATOM!!)
 
 
 POSCAR: MnFeNiGe_hex
  positions in direct lattice
  velocities in cartesian coordinates
 exchange correlation table for  LEXCH =        8
   RHO(1)=    0.500       N(1)  =     2000
   RHO(2)=  100.500       N(2)  =     4000
 


--------------------------------------------------------------------------------------------------------


 ion  position               nearest neighbor table
   1  0.667  0.833  0.375-  27 2.35  29 2.35  23 2.35  17 2.61  26 2.61  36 2.69  45 2.69  38 2.69
                            46 2.69  43 2.69  48 2.69
   2  0.333  0.167  0.625-  28 2.35  30 2.35  24 2.35  25 2.61  18 2.61  39 2.69  44 2.69  46 2.69
                            48 2.69  37 2.69  45 2.69
   3  0.167  0.833  0.375-  25 2.35  23 2.35  29 2.35  28 2.61  19 2.61  40 2.69  47 2.69  43 2.69
                            48 2.69  38 2.69  46 2.69
   4  0.833  0.167  0.625-  26 2.35  24 2.35  30 2.35  27 2.61  20 2.61  39 2.69  44 2.69  46 2.69
                            48 2.69  47 2.69  41 2.69
   5  0.167  0.333  0.375-  29 2.35  27 2.35  25 2.35  24 2.61  21 2.61  43 2.69  48 2.69  47 2.69
                            40 2.69  36 2.69  45 2.69
   6  0.833  0.667  0.625-  30 2.35  28 2.35  26 2.35  23 2.61  22 2.61  37 2.69  41 2.69  45 2.69
                            47 2.69  44 2.69  48 2.69
   7  0.833  0.667  0.125-  31 2.35  19 2.35  17 2.35  23 2.61  22 2.61  33 2.69  35 2.69  36 2.69
                            40 2.69  42 2.69  43 2.69
   8  0.167  0.333  0.875-  18 2.35  32 2.35  20 2.35  24 2.61  21 2.61  42 2.69  44 2.69  35 2.69
                            41 2.69  37 2.69  33 2.69
   9  0.333  0.167  0.125-  19 2.35  31 2.35  21 2.35  25 2.61  18 2.61  34 2.69  38 2.69  42 2.69
                            43 2.69  36 2.69  33 2.69
  10  0.667  0.833  0.875-  20 2.35  32 2.35  22 2.35  26 2.61  17 2.61  33 2.69  37 2.69  34 2.69
                            39 2.69  42 2.69  44 2.69
  11  0.833  0.167  0.125-  17 2.35  21 2.35  31 2.35  27 2.61  20 2.61  34 2.69  38 2.69  42 2.69
                            43 2.69  35 2.69  40 2.69
  12  0.167  0.833  0.875-  18 2.35  22 2.35  32 2.35  28 2.61  19 2.61  35 2.69  41 2.69  42 2.69
                            44 2.69  39 2.69  34 2.69
  13  0.333  0.667  0.125-  21 2.35  17 2.35  19 2.35  29 2.61  32 2.61  33 2.69  35 2.69  36 2.69
                            40 2.69  38 2.69  34 2.69
  14  0.667  0.333  0.875-  22 2.35  20 2.35  18 2.35  30 2.61  31 2.61  34 2.69  39 2.69  37 2.69
                            33 2.69  35 2.69  41 2.69
  15  0.667  0.333  0.375-  23 2.35  25 2.35  27 2.35  30 2.61  31 2.61  38 2.69  46 2.69  45 2.69
                            36 2.69  40 2.69  47 2.69
  16  0.333  0.667  0.625-  24 2.35  26 2.35  28 2.35  29 2.61  32 2.61  37 2.69  41 2.69  45 2.69
                            47 2.69  46 2.69  39 2.69
  17  0.667  0.833  0.125-  11 2.35  13 2.35   7 2.35   1 2.61  10 2.61  33 2.69  36 2.69  34 2.69
                            38 2.69  42 2.69  43 2.69
  18  0.333  0.167  0.875-   8 2.35  12 2.35  14 2.35   2 2.61   9 2.61  42 2.69  44 2.69  33 2.69
                            37 2.69  34 2.69  39 2.69
  19  0.167  0.833  0.125-   9 2.35   7 2.35  13 2.35  12 2.61   3 2.61  35 2.69  40 2.69  42 2.69
                            43 2.69  38 2.69  34 2.69
  20  0.833  0.167  0.875-  10 2.35   8 2.35  14 2.35  11 2.61   4 2.61  34 2.69  39 2.69  42 2.69
                            44 2.69  35 2.69  41 2.69
  21  0.167  0.333  0.125-  13 2.35  11 2.35   9 2.35   8 2.61   5 2.61  42 2.69  43 2.69  35 2.69
                            40 2.69  36 2.69  33 2.69
  22  0.833  0.667  0.875-  14 2.35  12 2.35  10 2.35   7 2.61   6 2.61  33 2.69  35 2.69  37 2.69
                            41 2.69  42 2.69  44 2.69
  23  0.833  0.667  0.375-  15 2.35   3 2.35   1 2.35   7 2.61   6 2.61  36 2.69  40 2.69  45 2.69
                            47 2.69  43 2.69  48 2.69
  24  0.167  0.333  0.625-  16 2.35   4 2.35   2 2.35   8 2.61   5 2.61  44 2.69  48 2.69  47 2.69
                            41 2.69  37 2.69  45 2.69
  25  0.333  0.167  0.375-   3 2.35  15 2.35   5 2.35   9 2.61   2 2.61  38 2.69  43 2.69  46 2.69
                            48 2.69  36 2.69  45 2.69
  26  0.667  0.833  0.625-   4 2.35  16 2.35   6 2.35  10 2.61   1 2.61  37 2.69  45 2.69  39 2.69
                            46 2.69  44 2.69  48 2.69
  27  0.833  0.167  0.375-   1 2.35   5 2.35  15 2.35  11 2.61   4 2.61  38 2.69  43 2.69  46 2.69
                            48 2.69  47 2.69  40 2.69
  28  0.167  0.833  0.625-   2 2.35   6 2.35  16 2.35  12 2.61   3 2.61  41 2.69  47 2.69  44 2.69
                            48 2.69  39 2.69  46 2.69
  29  0.333  0.667  0.375-   5 2.35   1 2.35   3 2.35  13 2.61  16 2.61  36 2.69  40 2.69  45 2.69
                            47 2.69  46 2.69  38 2.69
  30  0.667  0.333  0.625-   6 2.35   2 2.35   4 2.35  14 2.61  15 2.61  39 2.69  46 2.69  45 2.69
                            37 2.69  41 2.69  47 2.69
  31  0.667  0.333  0.125-   7 2.35   9 2.35  11 2.35  14 2.61  15 2.61  34 2.69  38 2.69  36 2.69
                            33 2.69  35 2.69  40 2.69
  32  0.333  0.667  0.875-   8 2.35  10 2.35  12 2.35  13 2.61  16 2.61  33 2.69  35 2.69  37 2.69
                            41 2.69  39 2.69  34 2.69
  33  0.500  0.500  0.000-  36 2.61  37 2.61  10 2.69  17 2.69   7 2.69  22 2.69  31 2.69  32 2.69
                            13 2.69  14 2.69   9 2.69  18 2.69  21 2.69   8 2.69
  34  0.500  0.000  0.000-  38 2.61  39 2.61  14 2.69  31 2.69  17 2.69  20 2.69  10 2.69  11 2.69
                             9 2.69  13 2.69  32 2.69  19 2.69  12 2.69  18 2.69
  35  0.000  0.500  0.000-  40 2.61  41 2.61  12 2.69  19 2.69   8 2.69  21 2.69  22 2.69  32 2.69
                             7 2.69  13 2.69  20 2.69  11 2.69  31 2.69  14 2.69
  36  0.500  0.500  0.250-  33 2.61  45 2.61   1 2.69  17 2.69   7 2.69  23 2.69  29 2.69  31 2.69
                            13 2.69  15 2.69   9 2.69  25 2.69   5 2.69  21 2.69
  37  0.500  0.500  0.750-  33 2.61  45 2.61  10 2.69  26 2.69  22 2.69   6 2.69  30 2.69  32 2.69
                            14 2.69  16 2.69   2 2.69  18 2.69  24 2.69   8 2.69
  38  0.500  0.000  0.250-  34 2.61  46 2.61  15 2.69  31 2.69  17 2.69  25 2.69  27 2.69   9 2.69
                            11 2.69   1 2.69  29 2.69  13 2.69   3 2.69  19 2.69
  39  0.500  0.000  0.750-  34 2.61  46 2.61  14 2.69  30 2.69  20 2.69  26 2.69   4 2.69  10 2.69
                             2 2.69  16 2.69  32 2.69  12 2.69  28 2.69  18 2.69
  40  0.000  0.500  0.250-  35 2.61  47 2.61   3 2.69  19 2.69   5 2.69  21 2.69  23 2.69  29 2.69
                             7 2.69  13 2.69  27 2.69  11 2.69  15 2.69  31 2.69
  41  0.000  0.500  0.750-  35 2.61  47 2.61  12 2.69  28 2.69  22 2.69  24 2.69   8 2.69  32 2.69
                             6 2.69  16 2.69   4 2.69  20 2.69  30 2.69  14 2.69
  42  0.000  0.000  0.000-  43 2.61  44 2.61  18 2.69   8 2.69  21 2.69  19 2.69  20 2.69  11 2.69
                            12 2.69   9 2.69   7 2.69  22 2.69  17 2.69  10 2.69
  43  0.000  0.000  0.250-  42 2.61  48 2.61   5 2.69  21 2.69  19 2.69   3 2.69  25 2.69  27 2.69
                             9 2.69  11 2.69   7 2.69  23 2.69  17 2.69   1 2.69
  44  0.000  0.000  0.750-  42 2.61  48 2.61  18 2.69   8 2.69  24 2.69  20 2.69   2 2.69  28 2.69
                            12 2.69   4 2.69   6 2.69  22 2.69  26 2.69  10 2.69
  45  0.500  0.500  0.500-  36 2.61  37 2.61   1 2.69  26 2.69  23 2.69   6 2.69  29 2.69  30 2.69
                            15 2.69  16 2.69  25 2.69   2 2.69   5 2.69  24 2.69
  46  0.500  0.000  0.500-  38 2.61  39 2.61  15 2.69  30 2.69  25 2.69  26 2.69  27 2.69   2 2.69
                             4 2.69   1 2.69  29 2.69  16 2.69   3 2.69  28 2.69
  47  0.000  0.500  0.500-  40 2.61  41 2.61   3 2.69  28 2.69  23 2.69  24 2.69   5 2.69  29 2.69
                             6 2.69  16 2.69   4 2.69  27 2.69  15 2.69  30 2.69
  48  0.000  0.000  0.500-  43 2.61  44 2.61   5 2.69  24 2.69   3 2.69  25 2.69  27 2.69  28 2.69
                             4 2.69   2 2.69   6 2.69  23 2.69   1 2.69  26 2.69
 
  LATTYP: Found a hexagonal cell.
 ALAT       =     8.1322542113
 C/A-ratio  =     1.2850434344
  
  Lattice vectors:
  
 A1 = (   8.1322542113,   0.0000000000,   0.0000000000)
 A2 = (  -4.0661271057,   7.0427387370,   0.0000000000)
 A3 = (   0.0000000000,   0.0000000000,  10.4502998808)


Analysis of symmetry for initial positions (statically):
=====================================================================
 Subroutine PRICEL returns:
 Original cell was already a primitive cell.
 

 Routine SETGRP: Setting up the symmetry group for a 
 hexagonal supercell.


 Subroutine GETGRP returns: Found 12 space group operations
 (whereof 12 operations were pure point group operations)
 out of a pool of 24 trial point group operations.


The static configuration has the point symmetry D_3d.


Analysis of symmetry for dynamics (positions and initial velocities):
=====================================================================
 Subroutine PRICEL returns:
 Original cell was already a primitive cell.
 

 Routine SETGRP: Setting up the symmetry group for a 
 hexagonal supercell.


 Subroutine GETGRP returns: Found 12 space group operations
 (whereof 12 operations were pure point group operations)
 out of a pool of 24 trial point group operations.


The dynamic configuration has the point symmetry D_3d.


Analysis of structural, dynamic, and magnetic symmetry:
=====================================================================
 Subroutine PRICEL returns:
 Original cell was already a primitive cell.
 

 Routine SETGRP: Setting up the symmetry group for a 
 hexagonal supercell.


 Subroutine GETGRP returns: Found 12 space group operations
 (whereof 12 operations were pure point group operations)
 out of a pool of 24 trial point group operations.


The magnetic configuration has the point symmetry D_3d.


 Subroutine INISYM returns: Found 12 space group operations
 (whereof 12 operations are pure point group operations),
 and found     1 'primitive' translations


----------------------------------------------------------------------------------------

                                     Primitive cell                                     

  volume of cell :     598.5236

  direct lattice vectors                    reciprocal lattice vectors
     8.132254211  0.000000000  0.000000000     0.122967135  0.070995108  0.000000000
    -4.066127106  7.042738737  0.000000000     0.000000000  0.141990217  0.000000000
     0.000000000  0.000000000 10.450299881     0.000000000  0.000000000  0.095691034

  length of vectors
     8.132254211  8.132254211 10.450299881     0.141990217  0.141990217  0.095691034

  position of ions in fractional coordinates (direct lattice)
     0.666666666  0.833333333  0.375000000
     0.333333333  0.166666666  0.625000000
     0.166666666  0.833333333  0.375000000
     0.833333333  0.166666666  0.625000000
     0.166666666  0.333333333  0.375000000
     0.833333333  0.666666666  0.625000000
     0.833333333  0.666666666  0.125000000
     0.166666666  0.333333333  0.875000000
     0.333333333  0.166666666  0.125000000
     0.666666666  0.833333333  0.875000000
     0.833333333  0.166666666  0.125000000
     0.166666666  0.833333333  0.875000000
     0.333333333  0.666666666  0.125000000
     0.666666666  0.333333333  0.875000000
     0.666666666  0.333333333  0.375000000
     0.333333333  0.666666666  0.625000000
     0.666666666  0.833333333  0.125000000
     0.333333313  0.166666666  0.875000000
     0.166666666  0.833333333  0.125000000
     0.833333333  0.166666666  0.875000000
     0.166666666  0.333333333  0.125000000
     0.833333333  0.666666666  0.875000000
     0.833333333  0.666666666  0.375000000
     0.166666666  0.333333333  0.625000000
     0.333333333  0.166666666  0.375000000
     0.666666666  0.833333333  0.625000000
     0.833333333  0.166666666  0.375000000
     0.166666666  0.833333333  0.625000000
     0.333333333  0.666666666  0.375000000
     0.666666666  0.333333333  0.625000000
     0.666666666  0.333333333  0.125000000
     0.333333333  0.666666666  0.875000000
     0.500000000  0.500000000  0.000000000
     0.500000000  0.000000000  0.000000000
     1.000000000  0.500000000  0.000000000
     0.500000000  0.500000000  0.250000000
     0.500000000  0.500000000  0.750000000
     0.500000000  0.000000000  0.250000000
     0.500000000  0.000000000  0.750000000
     1.000000000  0.500000000  0.250000000
     1.000000000  0.500000000  0.750000000
     0.000000000  0.000000000  0.000000000
     0.000000000  0.000000000  0.250000000
     0.000000000  0.000000000  0.750000000
     0.500000000  0.500000000  0.500000000
     0.500000000  0.000000000  0.500000000
     1.000000000  0.500000000  0.500000000
     0.000000000  0.000000000  0.500000000

  ion indices of the primitive-cell ions
   primitive index   ion index
                 1           1
                 2           2
                 3           3
                 4           4
                 5           5
                 6           6
                 7           7
                 8           8
                 9           9
                10          10
                11          11
                12          12
                13          13
                14          14
                15          15
                16          16
                17          17
                18          18
                19          19
                20          20
                21          21
                22          22
                23          23
                24          24
                25          25
                26          26
                27          27
                28          28
                29          29
                30          30
                31          31
                32          32
                33          33
                34          34
                35          35
                36          36
                37          37
                38          38
                39          39
                40          40
                41          41
                42          42
                43          43
                44          44
                45          45
                46          46
                47          47
                48          48

----------------------------------------------------------------------------------------

 
 
 KPOINTS: Auto                                    

Automatic generation of k-mesh.
Space group operators:
 irot       det(A)        alpha          n_x          n_y          n_z        tau_x        tau_y        tau_z
    1     1.000000     0.000001     1.000000     0.000000     0.000000     0.000000     0.000000     0.000000
    2    -1.000000     0.000001     1.000000     0.000000     0.000000     0.000000     0.000000     0.000000
    3     1.000000   120.000000     0.000000     0.000000    -1.000000     0.000000     0.000000     0.000000
    4    -1.000000   120.000000     0.000000     0.000000    -1.000000     0.000000     0.000000     0.000000
    5     1.000000   120.000000     0.000000     0.000000     1.000000     0.000000     0.000000     0.000000
    6    -1.000000   120.000000     0.000000     0.000000     1.000000     0.000000     0.000000     0.000000
    7     1.000000   180.000000     1.000000     0.000000     0.000000     0.000000     0.000000     0.000000
    8    -1.000000   180.000000     1.000000     0.000000     0.000000     0.000000     0.000000     0.000000
    9     1.000000   180.000000     0.500000    -0.866025     0.000000     0.000000     0.000000     0.000000
   10    -1.000000   180.000000     0.500000    -0.866025     0.000000     0.000000     0.000000     0.000000
   11     1.000000   180.000000    -0.500000    -0.866025     0.000000     0.000000     0.000000     0.000000
   12    -1.000000   180.000000    -0.500000    -0.866025     0.000000     0.000000     0.000000     0.000000
 
 Subroutine IBZKPT returns following result:
 ===========================================
 
 Found     69 irreducible k-points:
 
 Following reciprocal coordinates:
            Coordinates               Weight
  0.000000  0.000000  0.000000      1.000000
  0.111111 -0.000000  0.000000      6.000000
  0.222222 -0.000000  0.000000      6.000000
  0.333333 -0.000000  0.000000      6.000000
  0.444444 -0.000000  0.000000      6.000000
  0.111111  0.111111  0.000000      6.000000
  0.222222  0.111111  0.000000     12.000000
  0.333333  0.111111  0.000000     12.000000
  0.444444  0.111111  0.000000      6.000000
  0.222222  0.222222  0.000000      6.000000
  0.333333  0.222222  0.000000     12.000000
  0.333333  0.333333  0.000000      2.000000
  0.000000  0.000000  0.142857      2.000000
  0.111111 -0.000000  0.142857      6.000000
  0.111111 -0.111111  0.142857      6.000000
  0.222222 -0.000000  0.142857      6.000000
  0.222222 -0.222222  0.142857      6.000000
  0.333333 -0.000000  0.142857      6.000000
  0.333333 -0.333333  0.142857      6.000000
  0.444444 -0.000000  0.142857      6.000000
  0.444444 -0.444444  0.142857      6.000000
  0.111111  0.111111  0.142857     12.000000
  0.222222  0.111111  0.142857     12.000000
  0.333333 -0.222222  0.142857     12.000000
  0.333333  0.111111  0.142857     12.000000
  0.444444 -0.333333  0.142857     12.000000
  0.444444  0.111111  0.142857     12.000000
  0.222222  0.222222  0.142857     12.000000
  0.333333  0.222222  0.142857     12.000000
 -0.444444 -0.333333  0.142857     12.000000
  0.333333  0.333333  0.142857      4.000000
  0.000000  0.000000  0.285714      2.000000
  0.111111 -0.000000  0.285714      6.000000
  0.111111 -0.111111  0.285714      6.000000
  0.222222 -0.000000  0.285714      6.000000
  0.222222 -0.222222  0.285714      6.000000
  0.333333 -0.000000  0.285714      6.000000
  0.333333 -0.333333  0.285714      6.000000
  0.444444 -0.000000  0.285714      6.000000
  0.444444 -0.444444  0.285714      6.000000
  0.111111  0.111111  0.285714     12.000000
  0.222222  0.111111  0.285714     12.000000
  0.333333 -0.222222  0.285714     12.000000
  0.333333  0.111111  0.285714     12.000000
  0.444444 -0.333333  0.285714     12.000000
  0.444444  0.111111  0.285714     12.000000
  0.222222  0.222222  0.285714     12.000000
  0.333333  0.222222  0.285714     12.000000
 -0.444444 -0.333333  0.285714     12.000000
  0.333333  0.333333  0.285714      4.000000
  0.000000  0.000000  0.428571      2.000000
  0.111111 -0.000000  0.428571      6.000000
  0.111111 -0.111111  0.428571      6.000000
  0.222222 -0.000000  0.428571      6.000000
  0.222222 -0.222222  0.428571      6.000000
  0.333333 -0.000000  0.428571      6.000000
  0.333333 -0.333333  0.428571      6.000000
  0.444444 -0.000000  0.428571      6.000000
  0.444444 -0.444444  0.428571      6.000000
  0.111111  0.111111  0.428571     12.000000
  0.222222  0.111111  0.428571     12.000000
  0.333333 -0.222222  0.428571     12.000000
  0.333333  0.111111  0.428571     12.000000
  0.444444 -0.333333  0.428571     12.000000
  0.444444  0.111111  0.428571     12.000000
  0.222222  0.222222  0.428571     12.000000
  0.333333  0.222222  0.428571     12.000000
 -0.444444 -0.333333  0.428571     12.000000
  0.333333  0.333333  0.428571      4.000000
 
 Following cartesian coordinates:
            Coordinates               Weight
  0.000000  0.000000  0.000000      1.000000
  0.013595  0.007849  0.000000      6.000000
  0.027189  0.015698  0.000000      6.000000
  0.040784  0.023547  0.000000      6.000000
  0.054379  0.031396  0.000000      6.000000
  0.013595  0.023547  0.000000      6.000000
  0.027189  0.031396  0.000000     12.000000
  0.040784  0.039245  0.000000     12.000000
  0.054379  0.047093  0.000000      6.000000
  0.027189  0.047093  0.000000      6.000000
  0.040784  0.054942  0.000000     12.000000
  0.040784  0.070640  0.000000      2.000000
  0.000000  0.000000  0.013602      2.000000
  0.013595  0.007849  0.013602      6.000000
  0.013595 -0.007849  0.013602      6.000000
  0.027189  0.015698  0.013602      6.000000
  0.027189 -0.015698  0.013602      6.000000
  0.040784  0.023547  0.013602      6.000000
  0.040784 -0.023547  0.013602      6.000000
  0.054379  0.031396  0.013602      6.000000
  0.054379 -0.031396  0.013602      6.000000
  0.013595  0.023547  0.013602     12.000000
  0.027189  0.031396  0.013602     12.000000
  0.040784 -0.007849  0.013602     12.000000
  0.040784  0.039245  0.013602     12.000000
  0.054379 -0.015698  0.013602     12.000000
  0.054379  0.047093  0.013602     12.000000
  0.027189  0.047093  0.013602     12.000000
  0.040784  0.054942  0.013602     12.000000
 -0.054379 -0.078489  0.013602     12.000000
  0.040784  0.070640  0.013602      4.000000
  0.000000  0.000000  0.027204      2.000000
  0.013595  0.007849  0.027204      6.000000
  0.013595 -0.007849  0.027204      6.000000
  0.027189  0.015698  0.027204      6.000000
  0.027189 -0.015698  0.027204      6.000000
  0.040784  0.023547  0.027204      6.000000
  0.040784 -0.023547  0.027204      6.000000
  0.054379  0.031396  0.027204      6.000000
  0.054379 -0.031396  0.027204      6.000000
  0.013595  0.023547  0.027204     12.000000
  0.027189  0.031396  0.027204     12.000000
  0.040784 -0.007849  0.027204     12.000000
  0.040784  0.039245  0.027204     12.000000
  0.054379 -0.015698  0.027204     12.000000
  0.054379  0.047093  0.027204     12.000000
  0.027189  0.047093  0.027204     12.000000
  0.040784  0.054942  0.027204     12.000000
 -0.054379 -0.078489  0.027204     12.000000
  0.040784  0.070640  0.027204      4.000000
  0.000000  0.000000  0.040805      2.000000
  0.013595  0.007849  0.040805      6.000000
  0.013595 -0.007849  0.040805      6.000000
  0.027189  0.015698  0.040805      6.000000
  0.027189 -0.015698  0.040805      6.000000
  0.040784  0.023547  0.040805      6.000000
  0.040784 -0.023547  0.040805      6.000000
  0.054379  0.031396  0.040805      6.000000
  0.054379 -0.031396  0.040805      6.000000
  0.013595  0.023547  0.040805     12.000000
  0.027189  0.031396  0.040805     12.000000
  0.040784 -0.007849  0.040805     12.000000
  0.040784  0.039245  0.040805     12.000000
  0.054379 -0.015698  0.040805     12.000000
  0.054379  0.047093  0.040805     12.000000
  0.027189  0.047093  0.040805     12.000000
  0.040784  0.054942  0.040805     12.000000
 -0.054379 -0.078489  0.040805     12.000000
  0.040784  0.070640  0.040805      4.000000
 


--------------------------------------------------------------------------------------------------------




 Dimension of arrays:
   k-points           NKPTS =     69   k-points in BZ     NKDIM =     69   number of bands    NBANDS=    360
   number of dos      NEDOS =    301   number of ions     NIONS =     48
   non local maximal  LDIM  =      6   non local SUM 2l+1 LMDIM =     18
   total plane-waves  NPLWV = 225792
   max r-space proj   IRMAX =      1   max aug-charges    IRDMAX=  20701
   dimension x,y,z NGX =    56 NGY =   56 NGZ =   72
   dimension x,y,z NGXF=   112 NGYF=  112 NGZF=  144
   support grid    NGXF=   112 NGYF=  112 NGZF=  144
   ions per type =              16  16  15   1
   NGX,Y,Z   is equivalent  to a cutoff of  11.45, 11.45, 11.45 a.u.
   NGXF,Y,Z  is equivalent  to a cutoff of  22.90, 22.90, 22.91 a.u.

 SYSTEM =  MnFeNiGe_mag_hex-scf                    
 POSCAR =  MnFeNiGe_hex                            

 Startparameter for this run:
   NWRITE =      2    write-flag & timer
   PREC   = accura    normal or accurate (medium, high low for compatibility)
   ISTART =      0    job   : 0-new  1-cont  2-samecut
   ICHARG =      2    charge: 1-file 2-atom 10-const
   ISPIN  =      2    spin polarized calculation?
   LNONCOLLINEAR =      F non collinear calculations
   LSORBIT =      F    spin-orbit coupling
   INIWAV =      1    electr: 0-lowe 1-rand  2-diag
   LASPH  =      F    aspherical Exc in radial PAW
   METAGGA=      F    non-selfconsistent MetaGGA calc.

 Electronic Relaxation 1
   ENCUT  =  450.0 eV  33.07 Ry    5.75 a.u.  14.07 14.07 18.08*2*pi/ulx,y,z
   ENINI  =  450.0     initial cutoff
   ENAUG  =  544.6 eV  augmentation charge cutoff
   NELM   =     60;   NELMIN=  5; NELMDL= -5     # of ELM steps 
   EDIFF  = 0.1E-05   stopping-criterion for ELM
   LREAL  =      F    real-space projection
   NLSPLINE    = F    spline interpolate recip. space projectors
   LCOMPAT=      F    compatible to vasp.4.4
   GGA_COMPAT  = T    GGA compatible to vasp.4.4-vasp.4.6
   LMAXPAW     = -100 max onsite density
   LMAXMIX     =    2 max onsite mixed and CHGCAR
   VOSKOWN=      0    Vosko Wilk Nusair interpolation
   ROPT   =    0.00000   0.00000   0.00000   0.00000
 Ionic relaxation
   EDIFFG = 0.1E-04   stopping-criterion for IOM
   NSW    =      0    number of steps for IOM
   NBLOCK =      1;   KBLOCK =      1    inner block; outer block 
   IBRION =     -1    ionic relax: 0-MD 1-quasi-New 2-CG
   NFREE  =      0    steps in history (QN), initial steepest desc. (CG)
   ISIF   =      6    stress and relaxation
   IWAVPR =     10    prediction:  0-non 1-charg 2-wave 3-comb
   ISYM   =      2    0-nonsym 1-usesym 2-fastsym
   LCORR  =      T    Harris-Foulkes like correction to forces

   POTIM  = 0.5000    time-step for ionic-motion
   TEIN   =    0.0    initial temperature
   TEBEG  =    0.0;   TEEND  =   0.0 temperature during run
   SMASS  =  -3.00    Nose mass-parameter (am)
   estimated Nose-frequenzy (Omega)   =  0.10E-29 period in steps = 0.13E+47 mass=  -0.151E-26a.u.
   SCALEE = 1.0000    scale energy and forces
   NPACO  =    256;   APACO  = 16.0  distance and # of slots for P.C.
   PSTRESS=    0.0 pullay stress

  Mass of Ions in am
   POMASS =  58.69 72.61 54.94 55.85
  Ionic Valenz
   ZVAL   =  10.00  4.00  7.00  8.00
  Atomic Wigner-Seitz radii
   RWIGS  =  -1.00 -1.00 -1.00 -1.00
  virtual crystal weights 
   VCA    =   1.00  1.00  1.00  1.00
   NELECT =     337.0000    total number of electrons
   NUPDOWN=      -1.0000    fix difference up-down

 DOS related values:
   EMIN   =  10.00;   EMAX   =-10.00  energy-range for DOS
   EFERMI =   0.00
   ISMEAR =     1;   SIGMA  =   0.20  broadening in eV -4-tet -1-fermi 0-gaus

 Electronic relaxation 2 (details)
   IALGO  =     38    algorithm
   LDIAG  =      T    sub-space diagonalisation (order eigenvalues)
   LSUBROT=      F    optimize rotation matrix (better conditioning)
   TURBO    =      0    0=normal 1=particle mesh
   IRESTART =      0    0=no restart 2=restart with 2 vectors
   NREBOOT  =      0    no. of reboots
   NMIN     =      0    reboot dimension
   EREF     =   0.00    reference energy to select bands
   IMIX   =      4    mixing-type and parameters
     AMIX     =   0.40;   BMIX     =  1.00
     AMIX_MAG =   1.60;   BMIX_MAG =  1.00
     AMIN     =   0.10
     WC   =   100.;   INIMIX=   1;  MIXPRE=   1;  MAXMIX= -45

 Intra band minimization:
   WEIMIN = 0.0000     energy-eigenvalue tresh-hold
   EBREAK =  0.69E-09  absolut break condition
   DEPER  =   0.30     relativ break condition  

   TIME   =   0.40     timestep for ELM

  volume/ion in A,a.u.               =      12.47        84.15
  Fermi-wavevector in a.u.,A,eV,Ry     =   1.351837  2.554602 24.864152  1.827464
  Thomas-Fermi vector in A             =   2.479226
 
 Write flags
   LWAVE        =      F    write WAVECAR
   LDOWNSAMPLE  =      F    k-point downsampling of WAVECAR
   LCHARG       =      T    write CHGCAR
   LVTOT        =      F    write LOCPOT, total local potential
   LVHAR        =      F    write LOCPOT, Hartree potential only
   LELF         =      F    write electronic localiz. function (ELF)
   LORBIT       =     11    0 simple, 1 ext, 2 COOP (PROOUT), +10 PAW based schemes


 Dipole corrections
   LMONO  =      F    monopole corrections only (constant potential shift)
   LDIPOL =      F    correct potential (dipole corrections)
   IDIPOL =      0    1-x, 2-y, 3-z, 4-all directions 
   EPSILON=  1.0000000 bulk dielectric constant

 Exchange correlation treatment:
   GGA     =    --    GGA type
   LEXCH   =     8    internal setting for exchange type
   VOSKOWN=      0    Vosko Wilk Nusair interpolation
   LHFCALC =     F    Hartree Fock is set to
   LHFONE  =     F    Hartree Fock one center treatment
   AEXX    =    0.0000 exact exchange contribution

 Linear response parameters
   LEPSILON=     F    determine dielectric tensor
   LRPA    =     F    only Hartree local field effects (RPA)
   LNABLA  =     F    use nabla operator in PAW spheres
   LVEL    =     F    velocity operator in full k-point grid
   LINTERFAST=   F  fast interpolation
   KINTER  =     0    interpolate to denser k-point grid
   CSHIFT  =0.1000    complex shift for real part using Kramers Kronig
   OMEGAMAX=  -1.0    maximum frequency
   DEG_THRESHOLD= 0.2000000E-02 threshold for treating states as degnerate
   RTIME   =   -0.100 relaxation time in fs
  (WPLASMAI=    0.000 imaginary part of plasma frequency in eV, 0.658/RTIME)
   DFIELD  = 0.0000000 0.0000000 0.0000000 field for delta impulse in time
 
 Orbital magnetization related:
   ORBITALMAG=     F  switch on orbital magnetization
   LCHIMAG   =     F  perturbation theory with respect to B field
   DQ        =  0.001000  dq finite difference perturbation B field
   LLRAUG    =     F  two centre corrections for induced B field



--------------------------------------------------------------------------------------------------------


 Static calculation
 charge density and potential will be updated during run
 spin polarized calculation
 Variant of blocked Davidson
 Davidson routine will perform the subspace rotation
 perform sub-space diagonalisation
    after iterative eigenvector-optimisation
 modified Broyden-mixing scheme, WC =      100.0
 initial mixing is a Kerker type mixing with AMIX =  0.4000 and BMIX =      1.0000
 Hartree-type preconditioning will be used
 using additional bands          191
 reciprocal scheme for non local part
 use partial core corrections
 calculate Harris-corrections to forces 
   (improved forces if not selfconsistent)
 use gradient corrections 
 use of overlap-Matrix (Vanderbilt PP)
 Methfessel and Paxton  Order N= 1 SIGMA  =   0.20


--------------------------------------------------------------------------------------------------------


  energy-cutoff  :      450.00
  volume of cell :      598.52
      direct lattice vectors                 reciprocal lattice vectors
     8.132254211  0.000000000  0.000000000     0.122967135  0.070995108  0.000000000
    -4.066127106  7.042738737  0.000000000     0.000000000  0.141990217  0.000000000
     0.000000000  0.000000000 10.450299881     0.000000000  0.000000000  0.095691034

  length of vectors
     8.132254211  8.132254211 10.450299881     0.141990217  0.141990217  0.095691034


 
 k-points in units of 2pi/SCALE and weight: Auto                                    
   0.00000000  0.00000000  0.00000000       0.002
   0.01359470  0.00784890  0.00000000       0.011
   0.02718940  0.01569781  0.00000000       0.011
   0.04078410  0.02354671  0.00000000       0.011
   0.05437880  0.03139561  0.00000000       0.011
   0.01359470  0.02354671  0.00000000       0.011
   0.02718940  0.03139561  0.00000000       0.021
   0.04078410  0.03924452  0.00000000       0.021
   0.05437880  0.04709342  0.00000000       0.011
   0.02718940  0.04709342  0.00000000       0.011
   0.04078410  0.05494233  0.00000000       0.021
   0.04078410  0.07064013  0.00000000       0.004
   0.00000000  0.00000000  0.01360180       0.004
   0.01359470  0.00784890  0.01360180       0.011
   0.01359470 -0.00784890  0.01360180       0.011
   0.02718940  0.01569781  0.01360180       0.011
   0.02718940 -0.01569781  0.01360180       0.011
   0.04078410  0.02354671  0.01360180       0.011
   0.04078410 -0.02354671  0.01360180       0.011
   0.05437880  0.03139561  0.01360180       0.011
   0.05437880 -0.03139561  0.01360180       0.011
   0.01359470  0.02354671  0.01360180       0.021
   0.02718940  0.03139561  0.01360180       0.021
   0.04078410 -0.00784890  0.01360180       0.021
   0.04078410  0.03924452  0.01360180       0.021
   0.05437880 -0.01569781  0.01360180       0.021
   0.05437880  0.04709342  0.01360180       0.021
   0.02718940  0.04709342  0.01360180       0.021
   0.04078410  0.05494233  0.01360180       0.021
  -0.05437880 -0.07848904  0.01360180       0.021
   0.04078410  0.07064013  0.01360180       0.007
   0.00000000  0.00000000  0.02720359       0.004
   0.01359470  0.00784890  0.02720359       0.011
   0.01359470 -0.00784890  0.02720359       0.011
   0.02718940  0.01569781  0.02720359       0.011
   0.02718940 -0.01569781  0.02720359       0.011
   0.04078410  0.02354671  0.02720359       0.011
   0.04078410 -0.02354671  0.02720359       0.011
   0.05437880  0.03139561  0.02720359       0.011
   0.05437880 -0.03139561  0.02720359       0.011
   0.01359470  0.02354671  0.02720359       0.021
   0.02718940  0.03139561  0.02720359       0.021
   0.04078410 -0.00784890  0.02720359       0.021
   0.04078410  0.03924452  0.02720359       0.021
   0.05437880 -0.01569781  0.02720359       0.021
   0.05437880  0.04709342  0.02720359       0.021
   0.02718940  0.04709342  0.02720359       0.021
   0.04078410  0.05494233  0.02720359       0.021
  -0.05437880 -0.07848904  0.02720359       0.021
   0.04078410  0.07064013  0.02720359       0.007
   0.00000000  0.00000000  0.04080539       0.004
   0.01359470  0.00784890  0.04080539       0.011
   0.01359470 -0.00784890  0.04080539       0.011
   0.02718940  0.01569781  0.04080539       0.011
   0.02718940 -0.01569781  0.04080539       0.011
   0.04078410  0.02354671  0.04080539       0.011
   0.04078410 -0.02354671  0.04080539       0.011
   0.05437880  0.03139561  0.04080539       0.011
   0.05437880 -0.03139561  0.04080539       0.011
   0.01359470  0.02354671  0.04080539       0.021
   0.02718940  0.03139561  0.04080539       0.021
   0.04078410 -0.00784890  0.04080539       0.021
   0.04078410  0.03924452  0.04080539       0.021
   0.05437880 -0.01569781  0.04080539       0.021
   0.05437880  0.04709342  0.04080539       0.021
   0.02718940  0.04709342  0.04080539       0.021
   0.04078410  0.05494233  0.04080539       0.021
  -0.05437880 -0.07848904  0.04080539       0.021
   0.04078410  0.07064013  0.04080539       0.007
 
 k-points in reciprocal lattice and weights: Auto                                    
   0.00000000  0.00000000  0.00000000       0.002
   0.11111111 -0.00000000  0.00000000       0.011
   0.22222222 -0.00000000  0.00000000       0.011
   0.33333333 -0.00000000  0.00000000       0.011
   0.44444444 -0.00000000  0.00000000       0.011
   0.11111111  0.11111111  0.00000000       0.011
   0.22222222  0.11111111  0.00000000       0.021
   0.33333333  0.11111111  0.00000000       0.021
   0.44444444  0.11111111  0.00000000       0.011
   0.22222222  0.22222222  0.00000000       0.011
   0.33333333  0.22222222  0.00000000       0.021
   0.33333333  0.33333333  0.00000000       0.004
   0.00000000  0.00000000  0.14285714       0.004
   0.11111111 -0.00000000  0.14285714       0.011
   0.11111111 -0.11111111  0.14285714       0.011
   0.22222222 -0.00000000  0.14285714       0.011
   0.22222222 -0.22222222  0.14285714       0.011
   0.33333333 -0.00000000  0.14285714       0.011
   0.33333333 -0.33333333  0.14285714       0.011
   0.44444444 -0.00000000  0.14285714       0.011
   0.44444444 -0.44444444  0.14285714       0.011
   0.11111111  0.11111111  0.14285714       0.021
   0.22222222  0.11111111  0.14285714       0.021
   0.33333333 -0.22222222  0.14285714       0.021
   0.33333333  0.11111111  0.14285714       0.021
   0.44444444 -0.33333333  0.14285714       0.021
   0.44444444  0.11111111  0.14285714       0.021
   0.22222222  0.22222222  0.14285714       0.021
   0.33333333  0.22222222  0.14285714       0.021
  -0.44444444 -0.33333333  0.14285714       0.021
   0.33333333  0.33333333  0.14285714       0.007
   0.00000000  0.00000000  0.28571429       0.004
   0.11111111 -0.00000000  0.28571429       0.011
   0.11111111 -0.11111111  0.28571429       0.011
   0.22222222 -0.00000000  0.28571429       0.011
   0.22222222 -0.22222222  0.28571429       0.011
   0.33333333 -0.00000000  0.28571429       0.011
   0.33333333 -0.33333333  0.28571429       0.011
   0.44444444 -0.00000000  0.28571429       0.011
   0.44444444 -0.44444444  0.28571429       0.011
   0.11111111  0.11111111  0.28571429       0.021
   0.22222222  0.11111111  0.28571429       0.021
   0.33333333 -0.22222222  0.28571429       0.021
   0.33333333  0.11111111  0.28571429       0.021
   0.44444444 -0.33333333  0.28571429       0.021
   0.44444444  0.11111111  0.28571429       0.021
   0.22222222  0.22222222  0.28571429       0.021
   0.33333333  0.22222222  0.28571429       0.021
  -0.44444444 -0.33333333  0.28571429       0.021
   0.33333333  0.33333333  0.28571429       0.007
   0.00000000  0.00000000  0.42857143       0.004
   0.11111111 -0.00000000  0.42857143       0.011
   0.11111111 -0.11111111  0.42857143       0.011
   0.22222222 -0.00000000  0.42857143       0.011
   0.22222222 -0.22222222  0.42857143       0.011
   0.33333333 -0.00000000  0.42857143       0.011
   0.33333333 -0.33333333  0.42857143       0.011
   0.44444444 -0.00000000  0.42857143       0.011
   0.44444444 -0.44444444  0.42857143       0.011
   0.11111111  0.11111111  0.42857143       0.021
   0.22222222  0.11111111  0.42857143       0.021
   0.33333333 -0.22222222  0.42857143       0.021
   0.33333333  0.11111111  0.42857143       0.021
   0.44444444 -0.33333333  0.42857143       0.021
   0.44444444  0.11111111  0.42857143       0.021
   0.22222222  0.22222222  0.42857143       0.021
   0.33333333  0.22222222  0.42857143       0.021
  -0.44444444 -0.33333333  0.42857143       0.021
   0.33333333  0.33333333  0.42857143       0.007
 
 position of ions in fractional coordinates (direct lattice) 
   0.66666667  0.83333333  0.37500000
   0.33333333  0.16666667  0.62500000
   0.16666667  0.83333333  0.37500000
   0.83333333  0.16666667  0.62500000
   0.16666667  0.33333333  0.37500000
   0.83333333  0.66666667  0.62500000
   0.83333333  0.66666667  0.12500000
   0.16666667  0.33333333  0.87500000
   0.33333333  0.16666667  0.12500000
   0.66666667  0.83333333  0.87500000
   0.83333333  0.16666667  0.12500000
   0.16666667  0.83333333  0.87500000
   0.33333333  0.66666667  0.12500000
   0.66666667  0.33333333  0.87500000
   0.66666667  0.33333333  0.37500000
   0.33333333  0.66666667  0.62500000
   0.66666667  0.83333333  0.12500000
   0.33333331  0.16666667  0.87500000
   0.16666667  0.83333333  0.12500000
   0.83333333  0.16666667  0.87500000
   0.16666667  0.33333333  0.12500000
   0.83333333  0.66666667  0.87500000
   0.83333333  0.66666667  0.37500000
   0.16666667  0.33333333  0.62500000
   0.33333333  0.16666667  0.37500000
   0.66666667  0.83333333  0.62500000
   0.83333333  0.16666667  0.37500000
   0.16666667  0.83333333  0.62500000
   0.33333333  0.66666667  0.37500000
   0.66666667  0.33333333  0.62500000
   0.66666667  0.33333333  0.12500000
   0.33333333  0.66666667  0.87500000
   0.50000000  0.50000000  0.00000000
   0.50000000  0.00000000  0.00000000
   0.00000000  0.50000000  0.00000000
   0.50000000  0.50000000  0.25000000
   0.50000000  0.50000000  0.75000000
   0.50000000  0.00000000  0.25000000
   0.50000000  0.00000000  0.75000000
   0.00000000  0.50000000  0.25000000
   0.00000000  0.50000000  0.75000000
   0.00000000  0.00000000  0.00000000
   0.00000000  0.00000000  0.25000000
   0.00000000  0.00000000  0.75000000
   0.50000000  0.50000000  0.50000000
   0.50000000  0.00000000  0.50000000
   0.00000000  0.50000000  0.50000000
   0.00000000  0.00000000  0.50000000
 
 position of ions in cartesian coordinates  (Angst):
   2.03306355  5.86894895  3.91886246
   2.03306355  1.17378978  6.53143743
  -2.03306356  5.86894895  3.91886246
   6.09919066  1.17378978  6.53143743
  -0.00000000  2.34757958  3.91886246
   4.06612711  4.69515915  6.53143743
   4.06612711  4.69515915  1.30628749
  -0.00000000  2.34757958  9.14401240
   2.03306355  1.17378978  1.30628749
   2.03306355  5.86894895  9.14401240
   6.09919066  1.17378978  1.30628749
  -2.03306356  5.86894895  9.14401240
   0.00000000  4.69515915  1.30628749
   4.06612710  2.34757958  9.14401240
   4.06612710  2.34757958  3.91886246
   0.00000000  4.69515915  6.53143743
   2.03306355  5.86894895  1.30628749
   2.03306339  1.17378978  9.14401240
  -2.03306356  5.86894895  1.30628749
   6.09919066  1.17378978  9.14401240
  -0.00000000  2.34757958  1.30628749
   4.06612711  4.69515915  9.14401240
   4.06612711  4.69515915  3.91886246
  -0.00000000  2.34757958  6.53143743
   2.03306355  1.17378978  3.91886246
   2.03306355  5.86894895  6.53143743
   6.09919066  1.17378978  3.91886246
  -2.03306356  5.86894895  6.53143743
   0.00000000  4.69515915  3.91886246
   4.06612710  2.34757958  6.53143743
   4.06612710  2.34757958  1.30628749
   0.00000000  4.69515915  9.14401240
   2.03306355  3.52136937  0.00000000
   4.06612711  0.00000000  0.00000000
  -2.03306355  3.52136937  0.00000000
   2.03306355  3.52136937  2.61257497
   2.03306355  3.52136937  7.83772491
   4.06612711  0.00000000  2.61257497
   4.06612711  0.00000000  7.83772491
  -2.03306355  3.52136937  2.61257497
  -2.03306355  3.52136937  7.83772491
   0.00000000  0.00000000  0.00000000
   0.00000000  0.00000000  2.61257497
   0.00000000  0.00000000  7.83772491
   2.03306355  3.52136937  5.22514994
   4.06612711  0.00000000  5.22514994
  -2.03306355  3.52136937  5.22514994
   0.00000000  0.00000000  5.22514994
 


--------------------------------------------------------------------------------------------------------


 k-point   1 :   0.0000 0.0000 0.0000  plane waves:   12907
 k-point   2 :   0.1111-0.0000 0.0000  plane waves:   12941
 k-point   3 :   0.2222-0.0000 0.0000  plane waves:   12944
 k-point   4 :   0.3333-0.0000 0.0000  plane waves:   12962
 k-point   5 :   0.4444-0.0000 0.0000  plane waves:   12970
 k-point   6 :   0.1111 0.1111 0.0000  plane waves:   12940
 k-point   7 :   0.2222 0.1111 0.0000  plane waves:   12942
 k-point   8 :   0.3333 0.1111 0.0000  plane waves:   12965
 k-point   9 :   0.4444 0.1111 0.0000  plane waves:   12986
 k-point  10 :   0.2222 0.2222 0.0000  plane waves:   12966
 k-point  11 :   0.3333 0.2222 0.0000  plane waves:   13009
 k-point  12 :   0.3333 0.3333 0.0000  plane waves:   12972
 k-point  13 :   0.0000 0.0000 0.1429  plane waves:   12960
 k-point  14 :   0.1111-0.0000 0.1429  plane waves:   12944
 k-point  15 :   0.1111-0.1111 0.1429  plane waves:   12944
 k-point  16 :   0.2222-0.0000 0.1429  plane waves:   12941
 k-point  17 :   0.2222-0.2222 0.1429  plane waves:   12941
 k-point  18 :   0.3333-0.0000 0.1429  plane waves:   12959
 k-point  19 :   0.3333-0.3333 0.1429  plane waves:   12959
 k-point  20 :   0.4444-0.0000 0.1429  plane waves:   12980
 k-point  21 :   0.4444-0.4444 0.1429  plane waves:   12980
 k-point  22 :   0.1111 0.1111 0.1429  plane waves:   12958
 k-point  23 :   0.2222 0.1111 0.1429  plane waves:   12960
 k-point  24 :   0.3333-0.2222 0.1429  plane waves:   12960
 k-point  25 :   0.3333 0.1111 0.1429  plane waves:   12977
 k-point  26 :   0.4444-0.3333 0.1429  plane waves:   12977
 k-point  27 :   0.4444 0.1111 0.1429  plane waves:   12975
 k-point  28 :   0.2222 0.2222 0.1429  plane waves:   12980
 k-point  29 :   0.3333 0.2222 0.1429  plane waves:   12988
 k-point  30 :  -0.4444-0.3333 0.1429  plane waves:   12988
 k-point  31 :   0.3333 0.3333 0.1429  plane waves:   12987
 k-point  32 :   0.0000 0.0000 0.2857  plane waves:   12972
 k-point  33 :   0.1111-0.0000 0.2857  plane waves:   12944
 k-point  34 :   0.1111-0.1111 0.2857  plane waves:   12944
 k-point  35 :   0.2222-0.0000 0.2857  plane waves:   12970
 k-point  36 :   0.2222-0.2222 0.2857  plane waves:   12970
 k-point  37 :   0.3333-0.0000 0.2857  plane waves:   12965
 k-point  38 :   0.3333-0.3333 0.2857  plane waves:   12965
 k-point  39 :   0.4444-0.0000 0.2857  plane waves:   12976
 k-point  40 :   0.4444-0.4444 0.2857  plane waves:   12976
 k-point  41 :   0.1111 0.1111 0.2857  plane waves:   12961
 k-point  42 :   0.2222 0.1111 0.2857  plane waves:   12977
 k-point  43 :   0.3333-0.2222 0.2857  plane waves:   12977
 k-point  44 :   0.3333 0.1111 0.2857  plane waves:   12981
 k-point  45 :   0.4444-0.3333 0.2857  plane waves:   12981
 k-point  46 :   0.4444 0.1111 0.2857  plane waves:   12981
 k-point  47 :   0.2222 0.2222 0.2857  plane waves:   12981
 k-point  48 :   0.3333 0.2222 0.2857  plane waves:   12990
 k-point  49 :  -0.4444-0.3333 0.2857  plane waves:   12990
 k-point  50 :   0.3333 0.3333 0.2857  plane waves:   12978
 k-point  51 :   0.0000 0.0000 0.4286  plane waves:   12966
 k-point  52 :   0.1111-0.0000 0.4286  plane waves:   12963
 k-point  53 :   0.1111-0.1111 0.4286  plane waves:   12963
 k-point  54 :   0.2222-0.0000 0.4286  plane waves:   12986
 k-point  55 :   0.2222-0.2222 0.4286  plane waves:   12986
 k-point  56 :   0.3333-0.0000 0.4286  plane waves:   12988
 k-point  57 :   0.3333-0.3333 0.4286  plane waves:   12988
 k-point  58 :   0.4444-0.0000 0.4286  plane waves:   12968
 k-point  59 :   0.4444-0.4444 0.4286  plane waves:   12968
 k-point  60 :   0.1111 0.1111 0.4286  plane waves:   12981
 k-point  61 :   0.2222 0.1111 0.4286  plane waves:   12981
 k-point  62 :   0.3333-0.2222 0.4286  plane waves:   12981
 k-point  63 :   0.3333 0.1111 0.4286  plane waves:   12971
 k-point  64 :   0.4444-0.3333 0.4286  plane waves:   12971
 k-point  65 :   0.4444 0.1111 0.4286  plane waves:   12984
 k-point  66 :   0.2222 0.2222 0.4286  plane waves:   12964
 k-point  67 :   0.3333 0.2222 0.4286  plane waves:   12984
 k-point  68 :  -0.4444-0.3333 0.4286  plane waves:   12984
 k-point  69 :   0.3333 0.3333 0.4286  plane waves:   13014

 maximum and minimum number of plane-waves per node :      2202     2136

 maximum number of plane-waves:     13014
 maximum index in each direction: 
   IXMAX=   14   IYMAX=   14   IZMAX=   18
   IXMIN=  -14   IYMIN=  -14   IZMIN=  -18


 parallel 3D FFT for wavefunctions:
    minimum data exchange during FFTs selected (reduces bandwidth)
 parallel 3D FFT for charge:
    minimum data exchange during FFTs selected (reduces bandwidth)


 total amount of memory used by VASP MPI-rank0   591866. kBytes
=======================================================================

   base      :      30000. kBytes
   nonl-proj :      87992. kBytes
   fftplans  :       3907. kBytes
   grid      :      11074. kBytes
   one-center:        248. kBytes
   wavefun   :     458645. kBytes
 
     INWAV:  cpu time    0.0010: real time    0.0026
 Broyden mixing: mesh for mixing (old mesh)
   NGX = 29   NGY = 29   NGZ = 37
  (NGX  =112   NGY  =112   NGZ  =144)
  gives a total of  31117 points

 initial charge density was supplied:
 charge density of overlapping atoms calculated
 number of electron     337.0000000 magnetization     160.0000000
 keeping initial charge density in first step


--------------------------------------------------------------------------------------------------------


 Maximum index for augmentation-charges          930 (set IRDMAX)


--------------------------------------------------------------------------------------------------------


 First call to EWALD:  gamma=   0.210
 Maximum number of real-space cells 3x 3x 2
 Maximum number of reciprocal cells 3x 3x 3

    FEWALD:  cpu time    0.0030: real time    0.0126


--------------------------------------- Iteration      1(   1)  ---------------------------------------


    POTLOK:  cpu time    0.1650: real time    0.4245
    SETDIJ:  cpu time    0.0330: real time    0.1557
     EDDAV:  cpu time  323.1459: real time  326.0506
       DOS:  cpu time    0.0430: real time    0.0884
    --------------------------------------------
      LOOP:  cpu time  323.3868: real time  326.7193

 eigenvalue-minimisations  : 99360
 total energy-change (2. order) : 0.2828658E+04  (-0.1082940E+05)
 number of electron     337.0000000 magnetization     160.0000000
 augmentation part      337.0000000 magnetization     160.0000000

 Free energy of the ion-electron system (eV)
  ---------------------------------------------------
  alpha Z        PSCENC =      1604.65747308
  Ewald energy   TEWEN  =    -22616.10943147
  -Hartree energ DENC   =     -6680.67917944
  -exchange      EXHF   =         0.00000000
  -V(xc)+E(xc)   XCENC  =       319.32248639
  PAW double counting   =     23377.83946347   -23998.34197029
  entropy T*S    EENTRO =         0.00496001
  eigenvalues    EBANDS =      5053.73795454
  atomic energy  EATOM  =     25768.22672671
  Solvation  Ediel_sol  =         0.00000000
  ---------------------------------------------------
  free energy    TOTEN  =      2828.65848301 eV

  energy without entropy =     2828.65352300  energy(sigma->0) =     2828.65682967


--------------------------------------------------------------------------------------------------------




--------------------------------------- Iteration      1(   2)  ---------------------------------------


     EDDAV:  cpu time  323.1159: real time  324.4722
       DOS:  cpu time    0.0500: real time    0.0513
    --------------------------------------------
      LOOP:  cpu time  323.1669: real time  324.5236

 eigenvalue-minimisations  : 99360
 total energy-change (2. order) :-0.2649218E+04  (-0.2361636E+04)
 number of electron     337.0000000 magnetization     160.0000000
 augmentation part      337.0000000 magnetization     160.0000000

 Free energy of the ion-electron system (eV)
  ---------------------------------------------------
  alpha Z        PSCENC =      1604.65747308
  Ewald energy   TEWEN  =    -22616.10943147
  -Hartree energ DENC   =     -6680.67917944
  -exchange      EXHF   =         0.00000000
  -V(xc)+E(xc)   XCENC  =       319.32248639
  PAW double counting   =     23377.83946347   -23998.34197029
  entropy T*S    EENTRO =        -0.00270994
  eigenvalues    EBANDS =      2404.52756547
  atomic energy  EATOM  =     25768.22672671
  Solvation  Ediel_sol  =         0.00000000
  ---------------------------------------------------
  free energy    TOTEN  =       179.44042399 eV

  energy without entropy =      179.44313393  energy(sigma->0) =      179.44132730


--------------------------------------------------------------------------------------------------------




--------------------------------------- Iteration      1(   3)  ---------------------------------------


     EDDAV:  cpu time  322.7399: real time  324.1199
       DOS:  cpu time    0.0570: real time    0.0570
    --------------------------------------------
      LOOP:  cpu time  322.7969: real time  324.1770

 eigenvalue-minimisations  : 99480
 total energy-change (2. order) :-0.4414950E+03  (-0.3630857E+03)
 number of electron     337.0000000 magnetization     160.0000000
 augmentation part      337.0000000 magnetization     160.0000000

 Free energy of the ion-electron system (eV)
  ---------------------------------------------------
  alpha Z        PSCENC =      1604.65747308
  Ewald energy   TEWEN  =    -22616.10943147
  -Hartree energ DENC   =     -6680.67917944
  -exchange      EXHF   =         0.00000000
  -V(xc)+E(xc)   XCENC  =       319.32248639
  PAW double counting   =     23377.83946347   -23998.34197029
  entropy T*S    EENTRO =         0.02537868
  eigenvalues    EBANDS =      1963.00450241
  atomic energy  EATOM  =     25768.22672671
  Solvation  Ediel_sol  =         0.00000000
  ---------------------------------------------------
  free energy    TOTEN  =      -262.05455045 eV

  energy without entropy =     -262.07992913  energy(sigma->0) =     -262.06301001


--------------------------------------------------------------------------------------------------------




--------------------------------------- Iteration      1(   4)  ---------------------------------------


     EDDAV:  cpu time  377.0477: real time  378.9609
       DOS:  cpu time    0.0590: real time    0.0585
    --------------------------------------------
      LOOP:  cpu time  377.1057: real time  379.0195

 eigenvalue-minimisations  :121656
 total energy-change (2. order) :-0.3204583E+02  (-0.3061090E+02)
 number of electron     337.0000000 magnetization     160.0000000
 augmentation part      337.0000000 magnetization     160.0000000

 Free energy of the ion-electron system (eV)
  ---------------------------------------------------
  alpha Z        PSCENC =      1604.65747308
  Ewald energy   TEWEN  =    -22616.10943147
  -Hartree energ DENC   =     -6680.67917944
  -exchange      EXHF   =         0.00000000
  -V(xc)+E(xc)   XCENC  =       319.32248639
  PAW double counting   =     23377.83946347   -23998.34197029
  entropy T*S    EENTRO =         0.02902438
  eigenvalues    EBANDS =      1930.95503083
  atomic energy  EATOM  =     25768.22672671
  Solvation  Ediel_sol  =         0.00000000
  ---------------------------------------------------
  free energy    TOTEN  =      -294.10037633 eV

  energy without entropy =     -294.12940071  energy(sigma->0) =     -294.11005113


--------------------------------------------------------------------------------------------------------




--------------------------------------- Iteration      1(   5)  ---------------------------------------


     EDDAV:  cpu time  377.0917: real time  378.6535
       DOS:  cpu time    0.0610: real time    0.0608
    CHARGE:  cpu time    6.0311: real time    6.1210
    MIXING:  cpu time    0.0060: real time    0.0769
    --------------------------------------------
      LOOP:  cpu time  383.1897: real time  384.9123

 eigenvalue-minimisations  :121536
 total energy-change (2. order) :-0.8272768E+00  (-0.8253218E+00)
 number of electron     337.0000239 magnetization     125.5432127
 augmentation part      120.3589101 magnetization     102.1418850

 Broyden mixing:
  rms(total) = 0.10268E+02    rms(broyden)= 0.10268E+02
  rms(prec ) = 0.11175E+02
  weight for this iteration     100.00

 Free energy of the ion-electron system (eV)
  ---------------------------------------------------
  alpha Z        PSCENC =      1604.65747308
  Ewald energy   TEWEN  =    -22616.10943147
  -Hartree energ DENC   =     -6680.67917944
  -exchange      EXHF   =         0.00000000
  -V(xc)+E(xc)   XCENC  =       319.32248639
  PAW double counting   =     23377.83946347   -23998.34197029
  entropy T*S    EENTRO =         0.02909436
  eigenvalues    EBANDS =      1930.12768403
  atomic energy  EATOM  =     25768.22672671
  Solvation  Ediel_sol  =         0.00000000
  ---------------------------------------------------
  free energy    TOTEN  =      -294.92765315 eV

  energy without entropy =     -294.95674751  energy(sigma->0) =     -294.93735127


--------------------------------------------------------------------------------------------------------




--------------------------------------- Iteration      1(   6)  ---------------------------------------


    POTLOK:  cpu time    0.1500: real time    0.1593
    SETDIJ:  cpu time    0.0300: real time    0.0294
     EDDAV:  cpu time  386.3193: real time  388.2400
       DOS:  cpu time    0.0610: real time    0.0613
    CHARGE:  cpu time    5.6441: real time    5.6553
    MIXING:  cpu time    0.0070: real time    0.1133
    --------------------------------------------
[...]
   43        0.020   0.017   2.871   2.908
   44        0.020   0.017   2.871   2.908
   45        0.018   0.017   2.778   2.813
   46        0.018   0.017   2.778   2.813
   47        0.018   0.017   2.778   2.813
   48        0.014   0.005   2.257   2.277
--------------------------------------------------
tot         -0.303  -1.740  46.708  44.665
 
    CHARGE:  cpu time    5.6381: real time    5.6590
    FORLOC:  cpu time    0.0220: real time    0.0328
    FORNL :  cpu time  109.7603: real time  110.1119
    STRESS:  cpu time  190.0981: real time  190.7903
    FORCOR:  cpu time    0.1650: real time    0.1936
    FORHAR:  cpu time    0.0350: real time    0.0440
    MIXING:  cpu time    0.0070: real time    0.0075
    OFIELD:  cpu time    0.0000: real time    0.0043

  FORCE on cell =-STRESS in cart. coord.  units (eV):
  Direction    XX          YY          ZZ          XY          YZ          ZX
  --------------------------------------------------------------------------------------
  Alpha Z  1604.65747  1604.65747  1604.65747
  Ewald   -7319.02352 -7319.02351 -7978.15676    -0.00001     0.00000     0.00000
  Hartree  2112.26695  2112.26695  1983.52129    -0.00000     0.00000    -0.00000
  E(xc)   -1657.18435 -1657.18436 -1660.63395    -0.00002     0.00000    -0.00000
  Local    -663.19276  -663.19405     2.73794    -0.00111    -0.00000     0.00000
  n-local  -220.48296  -223.04856  -260.21587     1.15944    -0.54496    -0.60167
  augment  3297.32560  3297.32646  3370.33636     0.00075     0.00000     0.00000
  Kinetic  2855.22220  2854.57526  2945.03450     0.52140     0.16099     1.17140
  Fock        0.00000     0.00000     0.00000     0.00000     0.00000     0.00000
  -------------------------------------------------------------------------------------
  Total       7.98215     7.98215     7.28098    -0.00000     0.00000     0.00000
  in kB      21.36728    21.36728    19.49032    -0.00000     0.00000     0.00000
  external pressure =       20.74 kB  Pullay stress =        0.00 kB


 VOLUME and BASIS-vectors are now :
 -----------------------------------------------------------------------------
  energy-cutoff  :      450.00
  volume of cell :      598.52
      direct lattice vectors                 reciprocal lattice vectors
     8.132254211  0.000000000  0.000000000     0.122967135  0.070995108  0.000000000
    -4.066127106  7.042738737  0.000000000     0.000000000  0.141990217  0.000000000
     0.000000000  0.000000000 10.450299881     0.000000000  0.000000000  0.095691034

  length of vectors
     8.132254211  8.132254211 10.450299881     0.141990217  0.141990217  0.095691034


 FORCES acting on ions
    electron-ion (+dipol)            ewald-force                    non-local-force                 convergence-correction
 -----------------------------------------------------------------------------------------------
   0.122E+02 0.704E+01 0.998E+01   -.122E+02 -.706E+01 -.996E+01   0.447E-01 0.258E-01 -.116E-01   0.371E-03 0.214E-03 0.444E-02
   -.122E+02 -.704E+01 -.998E+01   0.122E+02 0.706E+01 0.996E+01   -.447E-01 -.258E-01 0.116E-01   -.371E-03 -.214E-03 -.444E-02
   -.122E+02 0.704E+01 0.998E+01   0.122E+02 -.706E+01 -.996E+01   -.447E-01 0.258E-01 -.116E-01   -.371E-03 0.214E-03 0.444E-02
   0.122E+02 -.704E+01 -.998E+01   -.122E+02 0.706E+01 0.996E+01   0.447E-01 -.258E-01 0.116E-01   0.371E-03 -.214E-03 -.444E-02
   0.329E-05 -.141E+02 0.998E+01   0.106E-05 0.141E+02 -.996E+01   0.108E-17 -.516E-01 -.116E-01   0.135E-07 -.429E-03 0.444E-02
   -.360E-05 0.141E+02 -.998E+01   -.640E-06 -.141E+02 0.996E+01   -.130E-17 0.516E-01 0.116E-01   -.129E-07 0.429E-03 -.444E-02
   -.347E-05 0.179E+01 0.423E+01   -.640E-06 -.181E+01 -.427E+01   0.651E-18 0.269E-01 0.343E-01   -.823E-08 0.361E-02 0.422E-02
   0.161E-05 -.179E+01 -.423E+01   -.901E-05 0.181E+01 0.427E+01   -.217E-18 -.269E-01 -.343E-01   0.930E-08 -.361E-02 -.422E-02
   -.155E+01 -.897E+00 0.423E+01   0.157E+01 0.906E+00 -.427E+01   -.233E-01 -.135E-01 0.343E-01   -.312E-02 -.180E-02 0.422E-02
   0.155E+01 0.897E+00 -.423E+01   -.157E+01 -.906E+00 0.427E+01   0.233E-01 0.135E-01 -.343E-01   0.312E-02 0.180E-02 -.422E-02
   0.155E+01 -.897E+00 0.423E+01   -.157E+01 0.906E+00 -.427E+01   0.233E-01 -.135E-01 0.343E-01   0.312E-02 -.180E-02 0.422E-02
   -.155E+01 0.897E+00 -.423E+01   0.157E+01 -.906E+00 0.427E+01   -.233E-01 0.135E-01 -.343E-01   -.312E-02 0.180E-02 -.422E-02
   -.346E-05 0.180E-05 0.284E+01   -.640E-06 0.211E-05 -.282E+01   0.217E-18 0.000E+00 -.265E-01   0.322E-09 -.364E-07 0.839E-02
   0.161E-05 -.359E-05 -.284E+01   -.900E-05 -.933E-05 0.282E+01   -.542E-18 0.000E+00 0.265E-01   0.723E-09 0.266E-07 -.839E-02
   0.313E-05 -.219E-05 0.351E+01   0.110E-05 -.122E-06 -.355E+01   -.359E-18 0.407E-19 0.696E-01   0.419E-08 0.949E-08 0.295E-02
   -.347E-05 0.179E-05 -.351E+01   -.640E-06 0.212E-05 0.355E+01   -.949E-19 -.407E-19 -.696E-01   -.366E-08 -.341E-07 -.295E-02
   0.623E+00 0.360E+00 0.168E+01   -.628E+00 -.362E+00 -.171E+01   0.108E-01 0.624E-02 0.282E-02   0.968E-03 0.559E-03 0.183E-02
   -.623E+00 -.360E+00 -.168E+01   0.628E+00 0.362E+00 0.171E+01   -.108E-01 -.624E-02 -.282E-02   -.968E-03 -.559E-03 -.183E-02
   -.623E+00 0.360E+00 0.168E+01   0.628E+00 -.362E+00 -.171E+01   -.108E-01 0.624E-02 0.282E-02   -.968E-03 0.559E-03 0.183E-02
   0.623E+00 -.360E+00 -.168E+01   -.628E+00 0.362E+00 0.171E+01   0.108E-01 -.624E-02 -.282E-02   0.968E-03 -.559E-03 -.183E-02
   -.477E-06 -.720E+00 0.168E+01   0.361E-06 0.725E+00 -.171E+01   0.867E-18 -.125E-01 0.282E-02   -.463E-09 -.112E-02 0.183E-02
   0.493E-06 0.720E+00 -.168E+01   -.621E-06 -.725E+00 0.171E+01   -.173E-17 0.125E-01 -.282E-02   0.734E-09 0.112E-02 -.183E-02
   0.525E-06 0.561E+01 0.396E+01   -.427E-06 -.565E+01 -.398E+01   0.000E+00 0.129E+00 0.900E-01   0.135E-08 -.126E-03 0.168E-02
   -.472E-06 -.561E+01 -.396E+01   0.353E-06 0.565E+01 0.398E+01   0.347E-17 -.129E+00 -.900E-01   -.121E-08 0.126E-03 -.168E-02
   -.486E+01 -.281E+01 0.396E+01   0.489E+01 0.283E+01 -.398E+01   -.112E+00 -.646E-01 0.900E-01   0.109E-03 0.628E-04 0.168E-02
   0.486E+01 0.281E+01 -.396E+01   -.489E+01 -.283E+01 0.398E+01   0.112E+00 0.646E-01 -.900E-01   -.109E-03 -.628E-04 -.168E-02
   0.486E+01 -.281E+01 0.396E+01   -.489E+01 0.283E+01 -.398E+01   0.112E+00 -.646E-01 0.900E-01   -.109E-03 0.628E-04 0.168E-02
   -.486E+01 0.281E+01 -.396E+01   0.489E+01 -.283E+01 0.398E+01   -.112E+00 0.646E-01 -.900E-01   0.109E-03 -.628E-04 -.168E-02
   0.523E-06 -.187E-06 0.141E+01   -.427E-06 0.635E-06 -.142E+01   0.173E-17 -.173E-17 0.710E-02   0.175E-09 -.806E-08 0.966E-03
   -.483E-06 0.277E-06 -.141E+01   0.366E-06 -.596E-06 0.142E+01   0.173E-17 0.173E-17 -.710E-02   -.363E-10 0.620E-08 -.966E-03
   -.482E-06 0.281E-06 0.115E+01   0.363E-06 -.598E-06 -.113E+01   0.000E+00 0.694E-17 0.932E-02   -.108E-08 0.680E-08 0.310E-02
   0.496E-06 -.192E-07 -.115E+01   -.621E-06 0.173E-05 0.113E+01   0.000E+00 -.694E-17 -.932E-02   0.135E-08 -.170E-07 -.310E-02
   0.567E-06 0.286E-06 0.213E-10   0.226E-05 -.715E-06 -.263E-12   -.662E-23 0.000E+00 0.000E+00   -.272E-07 0.897E-11 -.877E-12
   -.301E-06 0.787E-06 -.539E-06   -.352E-05 0.262E-05 -.357E-05   0.000E+00 0.000E+00 0.000E+00   0.469E-09 -.160E-07 0.825E-08
   -.262E-08 0.286E-06 -.277E-10   -.153E-05 -.715E-06 -.779E-13   0.165E-22 0.000E+00 0.000E+00   0.264E-07 0.129E-10 0.153E-11
   0.101E-01 -.585E-02 0.353E+01   -.832E-07 -.715E-06 -.354E+01   -.451E-02 0.260E-02 0.127E-01   -.333E-03 0.192E-03 0.529E-02
   -.101E-01 0.585E-02 -.353E+01   0.226E-05 -.715E-06 0.354E+01   0.451E-02 -.260E-02 -.127E-01   0.333E-03 -.192E-03 -.529E-02
   0.156E-06 0.117E-01 0.353E+01   -.482E-06 -.485E-06 -.354E+01   0.813E-19 -.521E-02 0.127E-01   0.204E-08 -.384E-03 0.529E-02
   -.302E-06 -.117E-01 -.353E+01   -.352E-05 0.262E-05 0.354E+01   0.271E-18 0.521E-02 -.127E-01   -.140E-08 0.384E-03 -.529E-02
   -.101E-01 -.585E-02 0.353E+01   -.675E-06 -.715E-06 -.354E+01   0.451E-02 0.260E-02 0.127E-01   0.333E-03 0.192E-03 0.529E-02
   0.101E-01 0.585E-02 -.353E+01   -.153E-05 -.715E-06 0.354E+01   -.451E-02 -.260E-02 -.127E-01   -.333E-03 -.192E-03 -.529E-02
   -.301E-06 -.215E-06 0.539E-06   -.352E-05 -.405E-05 0.357E-05   0.000E+00 0.000E+00 0.000E+00   0.474E-09 0.160E-07 -.826E-08
   0.151E-06 0.244E-06 0.140E+02   -.482E-06 -.945E-06 -.141E+02   0.000E+00 0.000E+00 0.279E+00   0.559E-09 0.897E-08 0.211E-02
   -.297E-06 -.207E-06 -.140E+02   -.352E-05 -.405E-05 0.141E+02   -.542E-19 0.000E+00 -.279E+00   0.869E-10 0.162E-07 -.211E-02
   0.215E-06 0.286E-06 -.346E-11   -.832E-07 -.715E-06 -.249E-13   0.000E+00 0.000E+00 0.000E+00   -.157E-07 0.136E-10 0.707E-12
   0.155E-06 0.321E-06 0.782E-07   -.482E-06 -.485E-06 0.520E-06   0.000E+00 0.000E+00 0.000E+00   0.169E-09 -.916E-08 -.704E-08
   0.126E-06 0.286E-06 -.410E-11   -.675E-06 -.715E-06 -.533E-13   0.000E+00 0.000E+00 0.000E+00   0.155E-07 0.140E-10 -.119E-11
   0.177E-06 0.288E-06 -.893E-07   -.551E-06 -.108E-05 -.594E-06   -.662E-23 0.000E+00 0.000E+00   0.207E-09 0.107E-07 0.829E-08
 -----------------------------------------------------------------------------------------------
   -.605E-05 0.141E-05 -.812E-07   -.304E-13 -.461E-13 -.108E-12   -.105E-16 -.867E-18 0.000E+00   -.598E-09 0.180E-08 0.153E-08
 
 
 POSITION                                       TOTAL-FORCE (eV/Angst)
 -----------------------------------------------------------------------------------
      2.03306      5.86895      3.91886         0.006608      0.003815      0.007093
      2.03306      1.17379      6.53144        -0.006608     -0.003815     -0.007093
     -2.03306      5.86895      3.91886        -0.006608      0.003815      0.007093
      6.09919      1.17379      6.53144         0.006608     -0.003815     -0.007093
     -0.00000      2.34758      3.91886        -0.000000     -0.007630      0.007093
      4.06613      4.69516      6.53144        -0.000000      0.007630     -0.007093
      4.06613      4.69516      1.30629        -0.000000      0.011777      0.000529
     -0.00000      2.34758      9.14401        -0.000000     -0.011777     -0.000529
      2.03306      1.17379      1.30629        -0.010199     -0.005888      0.000529
      2.03306      5.86895      9.14401         0.010199      0.005888     -0.000529
      6.09919      1.17379      1.30629         0.010199     -0.005888      0.000529
     -2.03306      5.86895      9.14401        -0.010199      0.005888     -0.000529
      0.00000      4.69516      1.30629        -0.000000     -0.000000      0.002504
      4.06613      2.34758      9.14401        -0.000000     -0.000000     -0.002504
      4.06613      2.34758      3.91886        -0.000000     -0.000000      0.031181
      0.00000      4.69516      6.53144        -0.000000     -0.000000     -0.031181
      2.03306      5.86895      1.30629         0.007342      0.004239     -0.023698
      2.03306      1.17379      9.14401        -0.007342     -0.004239      0.023698
     -2.03306      5.86895      1.30629        -0.007342      0.004239     -0.023698
      6.09919      1.17379      9.14401         0.007342     -0.004239      0.023698
     -0.00000      2.34758      1.30629        -0.000000     -0.008477     -0.023698
      4.06613      4.69516      9.14401        -0.000000      0.008477      0.023698
      4.06613      4.69516      3.91886         0.000000      0.089555      0.069161
     -0.00000      2.34758      6.53144        -0.000000     -0.089555     -0.069161
      2.03306      1.17379      3.91886        -0.077557     -0.044777      0.069161
      2.03306      5.86895      6.53144         0.077557      0.044777     -0.069161
      6.09919      1.17379      3.91886         0.077557     -0.044777      0.069161
     -2.03306      5.86895      6.53144        -0.077557      0.044777     -0.069161
      0.00000      4.69516      3.91886        -0.000000     -0.000000     -0.002385
      4.06613      2.34758      6.53144        -0.000000     -0.000000      0.002385
      4.06613      2.34758      1.30629        -0.000000     -0.000000      0.030142
      0.00000      4.69516      9.14401        -0.000000     -0.000000     -0.030142
      2.03306      3.52137      0.00000        -0.000000     -0.000000      0.000000
      4.06613      0.00000      0.00000        -0.000000     -0.000000      0.000000
     -2.03306      3.52137      0.00000        -0.000000     -0.000000      0.000000
      2.03306      3.52137      2.61257         0.005298     -0.003059      0.007178
      2.03306      3.52137      7.83772        -0.005298      0.003059     -0.007178
      4.06613      0.00000      2.61257        -0.000000      0.006117      0.007178
      4.06613      0.00000      7.83772        -0.000000     -0.006117     -0.007178
     -2.03306      3.52137      2.61257        -0.005298     -0.003059      0.007178
     -2.03306      3.52137      7.83772         0.005298      0.003059     -0.007178
      0.00000      0.00000      0.00000        -0.000000     -0.000000      0.000000
      0.00000      0.00000      2.61257        -0.000000     -0.000000      0.169511
      0.00000      0.00000      7.83772        -0.000000     -0.000000     -0.169511
      2.03306      3.52137      5.22515        -0.000000     -0.000000      0.000000
      4.06613      0.00000      5.22515        -0.000000     -0.000000      0.000000
     -2.03306      3.52137      5.22515        -0.000000     -0.000000      0.000000
      0.00000      0.00000      5.22515        -0.000000     -0.000000      0.000000
 -----------------------------------------------------------------------------------
    total drift:                               -0.000006      0.000001     -0.000000


--------------------------------------------------------------------------------------------------------



  FREE ENERGIE OF THE ION-ELECTRON SYSTEM (eV)
  ---------------------------------------------------
  free  energy   TOTEN  =      -313.10936034 eV

  energy  without entropy=     -313.07313205  energy(sigma->0) =     -313.09728424
 


--------------------------------------------------------------------------------------------------------


    POTLOK:  cpu time    0.1800: real time    0.2073


--------------------------------------------------------------------------------------------------------


     LOOP+:  cpu time13699.3564: real time13759.1566
    4ORBIT:  cpu time    0.0000: real time    0.0000
 


 total charge     
 
# of ion       s       p       d       tot
------------------------------------------
    1        0.476   0.536   8.459   9.471
    2        0.476   0.536   8.459   9.471
    3        0.476   0.536   8.459   9.471
    4        0.476   0.536   8.459   9.471
    5        0.476   0.536   8.459   9.471
    6        0.476   0.536   8.459   9.471
    7        0.477   0.540   8.459   9.476
    8        0.477   0.540   8.459   9.476
    9        0.477   0.540   8.459   9.476
   10        0.477   0.540   8.459   9.476
   11        0.477   0.540   8.459   9.476
   12        0.477   0.540   8.459   9.476
   13        0.477   0.541   8.458   9.475
   14        0.477   0.541   8.458   9.475
   15        0.477   0.538   8.460   9.476
   16        0.477   0.538   8.460   9.476
   17        1.085   1.284   0.130   2.499
   18        1.085   1.284   0.130   2.499
   19        1.085   1.284   0.130   2.499
   20        1.085   1.284   0.130   2.499
   21        1.085   1.284   0.130   2.499
   22        1.085   1.284   0.130   2.499
   23        1.085   1.279   0.130   2.494
   24        1.085   1.279   0.130   2.494
   25        1.085   1.279   0.130   2.494
   26        1.085   1.279   0.130   2.494
   27        1.085   1.279   0.130   2.494
   28        1.085   1.279   0.130   2.494
   29        1.085   1.283   0.130   2.499
   30        1.085   1.283   0.130   2.499
   31        1.085   1.285   0.130   2.500
   32        1.085   1.285   0.130   2.500
   33        0.285   0.334   5.099   5.718
   34        0.285   0.334   5.099   5.718
   35        0.285   0.334   5.099   5.718
   36        0.285   0.334   5.099   5.718
   37        0.285   0.334   5.099   5.718
   38        0.285   0.334   5.099   5.718
   39        0.285   0.334   5.099   5.718
   40        0.285   0.334   5.099   5.718
   41        0.285   0.334   5.099   5.718
   42        0.284   0.332   5.108   5.724
   43        0.285   0.335   5.086   5.706
   44        0.285   0.335   5.086   5.706
   45        0.286   0.335   5.097   5.718
   46        0.286   0.335   5.097   5.718
   47        0.286   0.335   5.097   5.718
   48        0.361   0.435   6.284   7.080
--------------------------------------------------
tot         29.617  34.578 220.176 284.371
 


 magnetization (x)
 
# of ion       s       p       d       tot
------------------------------------------
    1       -0.022  -0.034   0.163   0.108
    2       -0.022  -0.034   0.163   0.108
    3       -0.022  -0.034   0.163   0.108
    4       -0.022  -0.034   0.163   0.108
    5       -0.022  -0.034   0.163   0.108
    6       -0.022  -0.034   0.163   0.108
    7       -0.023  -0.034   0.165   0.109
    8       -0.023  -0.034   0.165   0.109
    9       -0.023  -0.034   0.165   0.109
   10       -0.023  -0.034   0.165   0.109
   11       -0.023  -0.034   0.165   0.109
   12       -0.023  -0.034   0.165   0.109
   13       -0.024  -0.034   0.164   0.107
   14       -0.024  -0.034   0.164   0.107
   15       -0.022  -0.032   0.172   0.118
   16       -0.022  -0.032   0.172   0.118
   17       -0.016  -0.092   0.005  -0.104
   18       -0.016  -0.092   0.005  -0.104
   19       -0.016  -0.092   0.005  -0.104
   20       -0.016  -0.092   0.005  -0.104
   21       -0.016  -0.092   0.005  -0.104
   22       -0.016  -0.092   0.005  -0.104
   23       -0.015  -0.088   0.003  -0.099
   24       -0.015  -0.088   0.003  -0.099
   25       -0.015  -0.088   0.003  -0.099
   26       -0.015  -0.088   0.003  -0.099
   27       -0.015  -0.088   0.003  -0.099
   28       -0.015  -0.088   0.003  -0.099
   29       -0.015  -0.093   0.005  -0.103
   30       -0.015  -0.093   0.005  -0.103
   31       -0.016  -0.095   0.005  -0.106
   32       -0.016  -0.095   0.005  -0.106
   33        0.019   0.016   2.775   2.810
   34        0.019   0.016   2.775   2.810
   35        0.019   0.016   2.775   2.810
   36        0.019   0.016   2.772   2.808
   37        0.019   0.016   2.772   2.808
   38        0.019   0.016   2.772   2.808
   39        0.019   0.016   2.772   2.808
   40        0.019   0.016   2.772   2.808
   41        0.019   0.016   2.772   2.808
   42        0.018   0.016   2.708   2.742
   43        0.020   0.017   2.871   2.908
   44        0.020   0.017   2.871   2.908
   45        0.018   0.017   2.778   2.813
   46        0.018   0.017   2.778   2.813
   47        0.018   0.017   2.778   2.813
   48        0.014   0.005   2.257   2.277
--------------------------------------------------
tot         -0.303  -1.740  46.708  44.665
 

 total amount of memory used by VASP MPI-rank0   591866. kBytes
=======================================================================

   base      :      30000. kBytes
   nonl-proj :      87992. kBytes
   fftplans  :       3907. kBytes
   grid      :      11074. kBytes
   one-center:        248. kBytes
   wavefun   :     458645. kBytes
 
  
  
 General timing and accounting informations for this job:
 ========================================================
  
                  Total CPU time used (sec):    13956.911
                            User time (sec):    13812.413
                          System time (sec):      144.498
                         Elapsed time (sec):    14024.530
  
                   Maximum memory used (kb):      847824.
                   Average memory used (kb):           0.
  
                          Minor page faults:        75075
                          Major page faults:          610
                 Voluntary context switches:         7221
