 running on   24 total cores
 distrk:  each k-point on   24 cores,    1 groups
 distr:  one band on    6 cores,    4 groups
 using from now: INCAR     
 vasp.6.1.1 19Jun20 (build Nov 30 2020 11:51:22) complex                        
  
 POSCAR found type information on POSCAR MnNiGeFe
 POSCAR found :  4 types and      48 ions
 scaLAPACK will be used
 -----------------------------------------------------------------------------
|                                                                             |
|               ----> ADVICE to this user running VASP <----                  |
|                                                                             |
|     You have a (more or less) 'large supercell' and for larger cells it     |
|     might be more efficient to use real-space projection operators.         |
|     Therefore, try LREAL= Auto in the INCAR file.                           |
|     Mind: For very accurate calculation, you might also keep the            |
|     reciprocal projection scheme (i.e. LREAL=.FALSE.).                      |
|                                                                             |
 -----------------------------------------------------------------------------

 LDA part: xc-table for Pade appr. of Perdew
 POSCAR, INCAR and KPOINTS ok, starting setup
 FFT: planning ...
 WAVECAR not read
 entering main loop
       N       E                     dE             d eps       ncg     rms          rms(c)
DAV:   1     0.273131455340E+04    0.27313E+04   -0.11020E+05 86400   0.102E+03
DAV:   2     0.147787477121E+03   -0.25835E+04   -0.23056E+04 86400   0.260E+02
DAV:   3    -0.273305010740E+03   -0.42109E+03   -0.34761E+03 86584   0.121E+02
DAV:   4    -0.302630628308E+03   -0.29326E+02   -0.28157E+02106328   0.375E+01
DAV:   5    -0.303386750222E+03   -0.75612E+00   -0.75448E+00103408   0.627E+00    0.978E+01
DAV:   6    -0.399136825223E+03   -0.95750E+02   -0.26139E+02109128   0.116E+02    0.124E+02
DAV:   7    -0.303512804449E+03    0.95624E+02   -0.17862E+02106392   0.815E+01    0.668E+01
DAV:   8    -0.339870804533E+03   -0.36358E+02   -0.60024E+01116512   0.475E+01    0.102E+02
DAV:   9    -0.322009743041E+03    0.17861E+02   -0.39646E+01124968   0.366E+01    0.512E+01
DAV:  10    -0.326981018556E+03   -0.49713E+01   -0.40706E+01119320   0.678E+01    0.834E+01
DAV:  11    -0.301360471674E+03    0.25621E+02   -0.34319E+01128560   0.469E+01    0.303E+01
DAV:  12    -0.305087839108E+03   -0.37274E+01   -0.10250E+01124272   0.367E+01    0.296E+01
DAV:  13    -0.307506398488E+03   -0.24186E+01   -0.73833E+00125440   0.244E+01    0.198E+01
DAV:  14    -0.311443591298E+03   -0.39372E+01   -0.51092E+00119336   0.240E+01    0.193E+01
DAV:  15    -0.311892967967E+03   -0.44938E+00   -0.39493E+00117296   0.194E+01    0.964E+00
DAV:  16    -0.312623238920E+03   -0.73027E+00   -0.21120E+00112152   0.122E+01    0.942E+00
DAV:  17    -0.312785786942E+03   -0.16255E+00   -0.14984E+00113352   0.109E+01    0.668E+00
DAV:  18    -0.312788071936E+03   -0.22850E-02   -0.63141E-01116416   0.748E+00    0.536E+00
DAV:  19    -0.312657685132E+03    0.13039E+00   -0.27965E-01116984   0.459E+00    0.236E+00
DAV:  20    -0.312691186826E+03   -0.33502E-01   -0.17068E-01111736   0.262E+00    0.186E+00
DAV:  21    -0.312708360089E+03   -0.17173E-01   -0.64134E-02115240   0.232E+00    0.212E+00
DAV:  22    -0.312694937464E+03    0.13423E-01   -0.26878E-02114048   0.140E+00    0.941E-01
DAV:  23    -0.312702235408E+03   -0.72979E-02   -0.15611E-02120760   0.907E-01    0.138E+00
DAV:  24    -0.312700026633E+03    0.22088E-02   -0.94233E-03117864   0.754E-01    0.105E+00
DAV:  25    -0.312697328910E+03    0.26977E-02   -0.38560E-03114896   0.584E-01    0.522E-01
DAV:  26    -0.312697602443E+03   -0.27353E-03   -0.21266E-03131936   0.323E-01    0.470E-01
DAV:  27    -0.312697420032E+03    0.18241E-03   -0.68839E-04116952   0.232E-01    0.358E-01
DAV:  28    -0.312697306319E+03    0.11371E-03   -0.23546E-04120952   0.121E-01    0.270E-01
DAV:  29    -0.312697256644E+03    0.49675E-04   -0.16416E-04118776   0.100E-01    0.226E-01
DAV:  30    -0.312697260437E+03   -0.37937E-05   -0.92960E-05151552   0.490E-02    0.169E-01
DAV:  31    -0.312697259641E+03    0.79665E-06   -0.22130E-05138480   0.409E-02    0.142E-01
DAV:  32    -0.312697248021E+03    0.11620E-04   -0.14003E-05138552   0.372E-02    0.956E-02
DAV:  33    -0.312697247631E+03    0.39017E-06   -0.96106E-06140656   0.266E-02
   1 F= -.31269725E+03 E0= -.31272633E+03  d E =0.872434E-01  mag=    48.2768
