 vasp.6.1.1 19Jun20 (build Nov 30 2020 11:51:22) complex                        
  
 executed on             LinuxIFC date 2021.03.26  16:56:50
 running on   24 total cores
 distrk:  each k-point on   24 cores,    1 groups
 distr:  one band on NCORE=   6 cores,    4 groups


--------------------------------------------------------------------------------------------------------


 INCAR:
 POTCAR:    PAW_PBE Mn 06Sep2000                  
 POTCAR:    PAW_PBE Ni 02Aug2007                  
 POTCAR:    PAW_PBE Ge 05Jan2001                  
 POTCAR:    PAW_PBE Fe 06Sep2000                  
 POTCAR:    PAW_PBE Mn 06Sep2000                  
   SHA256 =  791c87526310ff945dc83749a51ee60ee299d345ff72743aeb14609b9ed68bfc Mn/POTCAR             
   COPYR  = (c) Copyright 06Sep2000 Georg Kresse                                                    
   COPYR  = This file is part of the software VASP. Any use, copying, and all other rights are regul
   COPYR  = If you do not have a valid VASP license, you may not use, copy or distribute this file. 
   VRHFIN =Mn: d6 s1                                                                                
   LEXCH  = PE                                                                                      
   EATOM  =   416.7541 eV,   30.6306 Ry                                                             
                                                                                                    
   TITEL  = PAW_PBE Mn 06Sep2000                                                                    
   LULTRA =        F    use ultrasoft PP ?                                                          
   IUNSCR =        1    unscreen: 0-lin 1-nonlin 2-no                                               
   RPACOR =    2.000    partial core radius                                                         
   POMASS =   54.938; ZVAL   =    7.000    mass and valenz                                          
   RCORE  =    2.300    outmost cutoff radius                                                       
   RWIGS  =    2.500; RWIGS  =    1.323    wigner-seitz radius (au A)                               
   ENMAX  =  269.864; ENMIN  =  202.398 eV                                                          
   RCLOC  =    1.725    cutoff for local pot                                                        
   LCOR   =        T    correct aug charges                                                         
   LPAW   =        T    paw PP                                                                      
   EAUG   =  500.711                                                                                
   DEXC   =    0.000                                                                                
   RMAX   =    2.343    core radius for proj-oper                                                   
   RAUG   =    1.300    factor for augmentation sphere                                              
   RDEP   =    2.338    radius for radial grids                                                     
   RDEPT  =    1.911    core radius for aug-charge                                                  
                                                                                                    
   Atomic configuration                                                                             
    9 entries                                                                                       
     n  l   j            E        occ.                                                              
     1  0  0.50     -6424.8288   2.0000                                                             
     2  0  0.50      -739.1154   2.0000                                                             
     2  1  1.50      -625.3949   6.0000                                                             
     3  0  0.50       -81.6100   2.0000                                                             
     3  1  1.50       -50.4667   6.0000                                                             
     3  2  2.50        -3.3745   6.0000                                                             
     4  0  0.50        -4.1331   1.0000                                                             
     4  1  0.50        -4.0817   0.0000                                                             
     4  3  2.50        -1.3606   0.0000                                                             
   Description                                                                                      
     l       E           TYP  RCUT    TYP  RCUT                                                     
     2     -3.3744664     23  2.300                                                                 
     2     -4.7350490     23  2.300                                                                 
     0     -4.1331408     23  2.300                                                                 
     0      7.6656614     23  2.300                                                                 
     1     -2.7211652     23  2.300                                                                 
     1     20.4087390     23  2.300                                                                 
  local pseudopotential read in
  partial core-charges read in
  partial kinetic energy density read in
  atomic valenz-charges read in
  non local Contribution for L=           2  read in
    real space projection operators read in
  non local Contribution for L=           2  read in
    real space projection operators read in
  non local Contribution for L=           0  read in
    real space projection operators read in
  non local Contribution for L=           0  read in
    real space projection operators read in
  non local Contribution for L=           1  read in
    real space projection operators read in
  non local Contribution for L=           1  read in
    real space projection operators read in
    PAW grid and wavefunctions read in
 
   number of l-projection  operators is LMAX  =           6
   number of lm-projection operators is LMMAX =          18
 
 POTCAR:    PAW_PBE Ni 02Aug2007                  
   SHA256 =  0534bc51ca8003dfef23f56753fef9fdd3e22eac8d719fccacb59f3e6b7a69c7 Ni/POTCAR             
   COPYR  = (c) Copyright 02Aug2007 Georg Kresse                                                    
   COPYR  = This file is part of the software VASP. Any use, copying, and all other rights are regul
   COPYR  = If you do not have a valid VASP license, you may not use, copy or distribute this file. 
   VRHFIN =Ni:                                                                                      
   LEXCH  = PE                                                                                      
   EATOM  =  1077.6739 eV,   79.2068 Ry                                                             
                                                                                                    
   TITEL  = PAW_PBE Ni 02Aug2007                                                                    
   LULTRA =        F    use ultrasoft PP ?                                                          
   IUNSCR =        1    unscreen: 0-lin 1-nonlin 2-no                                               
   RPACOR =    2.000    partial core radius                                                         
   POMASS =   58.690; ZVAL   =   10.000    mass and valenz                                          
   RCORE  =    2.300    outmost cutoff radius                                                       
   RWIGS  =    2.430; RWIGS  =    1.286    wigner-seitz radius (au A)                               
   ENMAX  =  269.532; ENMIN  =  202.149 eV                                                          
   RCLOC  =    1.201    cutoff for local pot                                                        
   LCOR   =        T    correct aug charges                                                         
   LPAW   =        T    paw PP                                                                      
   EAUG   =  544.565                                                                                
   DEXC   =    0.000                                                                                
   RMAX   =    2.357    core radius for proj-oper                                                   
   RAUG   =    1.300    factor for augmentation sphere                                              
   RDEP   =    2.390    radius for radial grids                                                     
   RDEPT  =    1.838    core radius for aug-charge                                                  
                                                                                                    
   Atomic configuration                                                                             
    9 entries                                                                                       
     n  l   j            E        occ.                                                              
     1  0  0.50     -8206.4253   2.0000                                                             
     2  0  0.50      -976.1748   2.0000                                                             
     2  1  1.50      -839.0571   6.0000                                                             
     3  0  0.50      -105.9991   2.0000                                                             
     3  1  1.50       -66.4603   6.0000                                                             
     3  2  2.50        -4.6458   9.0000                                                             
     4  0  0.50        -4.4926   1.0000                                                             
     4  1  1.50        -4.0817   0.0000                                                             
     4  3  2.50        -1.3606   0.0000                                                             
   Description                                                                                      
     l       E           TYP  RCUT    TYP  RCUT                                                     
     2     -4.6457903     23  2.300                                                                 
     2     -6.0063729     23  2.300                                                                 
     0     -4.4925590     23  2.300                                                                 
     0      5.0102601     23  2.300                                                                 
     1     -2.7211652     23  2.300                                                                 
     1     16.5183231     23  2.300                                                                 
  local pseudopotential read in
  partial core-charges read in
  partial kinetic energy density read in
  atomic valenz-charges read in
  non local Contribution for L=           2  read in
    real space projection operators read in
  non local Contribution for L=           2  read in
    real space projection operators read in
  non local Contribution for L=           0  read in
    real space projection operators read in
  non local Contribution for L=           0  read in
    real space projection operators read in
  non local Contribution for L=           1  read in
    real space projection operators read in
  non local Contribution for L=           1  read in
    real space projection operators read in
    PAW grid and wavefunctions read in
 
   number of l-projection  operators is LMAX  =           6
   number of lm-projection operators is LMMAX =          18
 
 POTCAR:    PAW_PBE Ge 05Jan2001                  
   SHA256 =  7ff11deedcda39f1950abeda971a84a1f98a719a97bc9679a0df455c008734f8 Ge/POTCAR             
   COPYR  = (c) Copyright 05Jan2001 Georg Kresse                                                    
   COPYR  = This file is part of the software VASP. Any use, copying, and all other rights are regul
   COPYR  = If you do not have a valid VASP license, you may not use, copy or distribute this file. 
   VRHFIN =Ge: s2p2                                                                                 
   LEXCH  = PE                                                                                      
   EATOM  =   104.9960 eV,    7.7170 Ry                                                             
                                                                                                    
   TITEL  = PAW_PBE Ge 05Jan2001                                                                    
   LULTRA =        F    use ultrasoft PP ?                                                          
   IUNSCR =        1    unscreen: 0-lin 1-nonlin 2-no                                               
   RPACOR =    2.170    partial core radius                                                         
   POMASS =   72.610; ZVAL   =    4.000    mass and valenz                                          
   RCORE  =    2.300    outmost cutoff radius                                                       
   RWIGS  =    2.300; RWIGS  =    1.217    wigner-seitz radius (au A)                               
   ENMAX  =  173.807; ENMIN  =  130.355 eV                                                          
   ICORE  =        3    local potential                                                             
   LCOR   =        T    correct aug charges                                                         
   LPAW   =        T    paw PP                                                                      
   EAUG   =  385.843                                                                                
   DEXC   =    0.000                                                                                
   RMAX   =    2.342    core radius for proj-oper                                                   
   RAUG   =    1.300    factor for augmentation sphere                                              
   RDEP   =    2.318    radius for radial grids                                                     
   RDEPT  =    2.103    core radius for aug-charge                                                  
                                                                                                    
   Atomic configuration                                                                             
   10 entries                                                                                       
     n  l   j            E        occ.                                                              
     1  0  0.50    -10959.8463   2.0000                                                             
     2  0  0.50     -1371.6056   2.0000                                                             
     2  1  1.50     -1198.4791   6.0000                                                             
     3  0  0.50      -168.4733   2.0000                                                             
     3  1  1.50      -115.6019   6.0000                                                             
     3  2  2.50       -29.3106  10.0000                                                             
     4  0  0.50       -11.7309   2.0000                                                             
     4  1  0.50        -3.8952   2.0000                                                             
     4  2  1.50        -4.0817   0.0000                                                             
     4  3  2.50        -4.0817   0.0000                                                             
   Description                                                                                      
     l       E           TYP  RCUT    TYP  RCUT                                                     
     0    -11.7309493     23  2.300                                                                 
     0     -7.4578696     23  2.300                                                                 
     1     -3.8952261     23  2.300                                                                 
     1      6.1178114     23  2.300                                                                 
     2     -4.0817478     23  2.300                                                                 
     3     -1.3605826      7  2.300                                                                 
  local pseudopotential read in
  partial core-charges read in
  partial kinetic energy density read in
  atomic valenz-charges read in
  non local Contribution for L=           0  read in
    real space projection operators read in
  non local Contribution for L=           0  read in
    real space projection operators read in
  non local Contribution for L=           1  read in
    real space projection operators read in
  non local Contribution for L=           1  read in
    real space projection operators read in
  non local Contribution for L=           2  read in
    real space projection operators read in
    PAW grid and wavefunctions read in
 
   number of l-projection  operators is LMAX  =           5
   number of lm-projection operators is LMMAX =          13
 
 POTCAR:    PAW_PBE Fe 06Sep2000                  
   SHA256 =  cd5a22d9368cc8b5cc476bea79732366149640da08ac9009b0e1b7fc627eea28 Fe/POTCAR             
   COPYR  = (c) Copyright 06Sep2000 Georg Kresse                                                    
   COPYR  = This file is part of the software VASP. Any use, copying, and all other rights are regul
   COPYR  = If you do not have a valid VASP license, you may not use, copy or distribute this file. 
   VRHFIN =Fe:  d7 s1                                                                               
   LEXCH  = PE                                                                                      
   EATOM  =   594.3153 eV,   43.6809 Ry                                                             
                                                                                                    
   TITEL  = PAW_PBE Fe 06Sep2000                                                                    
   LULTRA =        F    use ultrasoft PP ?                                                          
   IUNSCR =        1    unscreen: 0-lin 1-nonlin 2-no                                               
   RPACOR =    2.000    partial core radius                                                         
   POMASS =   55.847; ZVAL   =    8.000    mass and valenz                                          
   RCORE  =    2.300    outmost cutoff radius                                                       
   RWIGS  =    2.460; RWIGS  =    1.302    wigner-seitz radius (au A)                               
   ENMAX  =  267.882; ENMIN  =  200.911 eV                                                          
   RCLOC  =    1.701    cutoff for local pot                                                        
   LCOR   =        T    correct aug charges                                                         
   LPAW   =        T    paw PP                                                                      
   EAUG   =  511.368                                                                                
   DEXC   =    0.000                                                                                
   RMAX   =    2.356    core radius for proj-oper                                                   
   RAUG   =    1.300    factor for augmentation sphere                                              
   RDEP   =    2.442    radius for radial grids                                                     
   RDEPT  =    1.890    core radius for aug-charge                                                  
                                                                                                    
   Atomic configuration                                                                             
    9 entries                                                                                       
     n  l   j            E        occ.                                                              
     1  0  0.50     -6993.8440   2.0000                                                             
     2  0  0.50      -814.6047   2.0000                                                             
     2  1  1.50      -693.3689   6.0000                                                             
     3  0  0.50       -89.4732   2.0000                                                             
     3  1  1.50       -55.6373   6.0000                                                             
     3  2  2.50        -3.8151   7.0000                                                             
     4  0  0.50        -4.2551   1.0000                                                             
     4  1  1.50        -3.4015   0.0000                                                             
     4  3  2.50        -1.3606   0.0000                                                             
   Description                                                                                      
     l       E           TYP  RCUT    TYP  RCUT                                                     
     2     -3.8151135     23  2.300                                                                 
     2     -5.1756961     23  2.300                                                                 
     0     -4.2550963     23  2.300                                                                 
     0      7.2035603     23  2.300                                                                 
     1     -2.7211652     23  2.300                                                                 
     1     18.4316424     23  2.300                                                                 
  local pseudopotential read in
  partial core-charges read in
  partial kinetic energy density read in
  atomic valenz-charges read in
  non local Contribution for L=           2  read in
    real space projection operators read in
  non local Contribution for L=           2  read in
    real space projection operators read in
  non local Contribution for L=           0  read in
    real space projection operators read in
  non local Contribution for L=           0  read in
    real space projection operators read in
  non local Contribution for L=           1  read in
    real space projection operators read in
  non local Contribution for L=           1  read in
    real space projection operators read in
    PAW grid and wavefunctions read in
 
   number of l-projection  operators is LMAX  =           6
   number of lm-projection operators is LMMAX =          18
 
 -----------------------------------------------------------------------------
|                                                                             |
|               ----> ADVICE to this user running VASP <----                  |
|                                                                             |
|     You have a (more or less) 'large supercell' and for larger cells it     |
|     might be more efficient to use real-space projection operators.         |
|     Therefore, try LREAL= Auto in the INCAR file.                           |
|     Mind: For very accurate calculation, you might also keep the            |
|     reciprocal projection scheme (i.e. LREAL=.FALSE.).                      |
|                                                                             |
 -----------------------------------------------------------------------------

  PAW_PBE Mn 06Sep2000                  :
 energy of atom  1       EATOM= -416.7541
 kinetic energy error for atom=    0.0033 (will be added to EATOM!!)
  PAW_PBE Ni 02Aug2007                  :
 energy of atom  2       EATOM=-1077.6739
 kinetic energy error for atom=    0.0038 (will be added to EATOM!!)
  PAW_PBE Ge 05Jan2001                  :
 energy of atom  3       EATOM= -104.9960
 kinetic energy error for atom=    0.0003 (will be added to EATOM!!)
  PAW_PBE Fe 06Sep2000                  :
 energy of atom  4       EATOM= -594.3153
 kinetic energy error for atom=    0.0034 (will be added to EATOM!!)
 
 
 POSCAR: MnNiGe_orth
  positions in direct lattice
  velocities in cartesian coordinates
 exchange correlation table for  LEXCH =        8
   RHO(1)=    0.500       N(1)  =     2000
   RHO(2)=  100.500       N(2)  =     4000
 


--------------------------------------------------------------------------------------------------------


 ion  position               nearest neighbor table
   1  0.242  0.250  0.178-  41 2.52  45 2.52  32 2.58  44 2.77  40 2.77  16 2.80  18 2.80  29 2.87
                            25 2.87  24 2.93  28 2.93
   2  0.242  0.750  0.178-  41 2.52  45 2.52  33 2.58  44 2.77  40 2.77  17 2.80  19 2.80  29 2.87
                            25 2.87  24 2.93  28 2.93
   3  0.492  0.250  0.322-  42 2.52  46 2.52  34 2.58  45 2.77  41 2.77  18 2.80  20 2.80  30 2.87
                            26 2.87  25 2.93  29 2.93
   4  0.492  0.750  0.322-  42 2.52  46 2.52  35 2.58  45 2.77  41 2.77  19 2.80  21 2.80  30 2.87
                            26 2.87  25 2.93  29 2.93
   5  0.742  0.250  0.178-  43 2.52  47 2.52  36 2.58  46 2.77  42 2.77  20 2.80  22 2.80  31 2.87
                            27 2.87  26 2.93  30 2.93
   6  0.742  0.750  0.178-  43 2.52  47 2.52  37 2.58  46 2.77  42 2.77  21 2.80  23 2.80  31 2.87
                            27 2.87  26 2.93  30 2.93
   7  0.992  0.250  0.322-  40 2.52  44 2.52  38 2.58  43 2.77  47 2.77  22 2.80  16 2.80  28 2.87
                            24 2.87  31 2.93  27 2.93
   8  0.992  0.750  0.322-  40 2.52  44 2.52  39 2.58  43 2.77  47 2.77  23 2.80  17 2.80  28 2.87
                            24 2.87  31 2.93  27 2.93
   9  0.008  0.000  0.678-  38 2.52  39 2.52  40 2.58  33 2.77  32 2.77  24 2.80  27 2.80  23 2.87
                            22 2.87  17 2.93  16 2.93
  10  0.258  0.000  0.822-  32 2.52  33 2.52  41 2.58  35 2.77  34 2.77  25 2.80  24 2.80  17 2.87
                            16 2.87  19 2.93  18 2.93
  11  0.508  0.000  0.678-  34 2.52  35 2.52  42 2.58  37 2.77  36 2.77  26 2.80  25 2.80  19 2.87
                            18 2.87  21 2.93  20 2.93
  12  0.758  0.000  0.822-  36 2.52  37 2.52  43 2.58  39 2.77  38 2.77  27 2.80  26 2.80  21 2.87
                            20 2.87  23 2.93  22 2.93
  13  0.008  0.500  0.678-  38 2.52  39 2.52  44 2.58  33 2.77  32 2.77  28 2.80  31 2.80  23 2.87
                            22 2.87  17 2.93  16 2.93
  14  0.258  0.500  0.822-  32 2.52  33 2.52  45 2.58  35 2.77  34 2.77  29 2.80  28 2.80  17 2.87
                            16 2.87  19 2.93  18 2.93
  15  0.758  0.500  0.822-  36 2.52  37 2.52  47 2.58  39 2.77  38 2.77  31 2.80  30 2.80  21 2.87
                            20 2.87  23 2.93  22 2.93
  16  0.177  0.250  0.553-  40 2.35  44 2.35  32 2.41  34 2.47  25 2.71  29 2.71   1 2.80   7 2.80
                            10 2.87  14 2.87  13 2.93   9 2.93
  17  0.177  0.750  0.553-  40 2.35  44 2.35  33 2.41  35 2.47  25 2.71  29 2.71   2 2.80   8 2.80
                            10 2.87  14 2.87  13 2.93   9 2.93
  18  0.427  0.250  0.947-  41 2.35  45 2.35  34 2.41  36 2.47  26 2.71  30 2.71   3 2.80   1 2.80
                            11 2.87  48 2.87  14 2.93  10 2.93
  19  0.427  0.750  0.947-  41 2.35  45 2.35  35 2.41  37 2.47  26 2.71  30 2.71   4 2.80   2 2.80
                            11 2.87  48 2.87  14 2.93  10 2.93
  20  0.677  0.250  0.553-  42 2.35  46 2.35  36 2.41  38 2.47  27 2.71  31 2.71   5 2.80   3 2.80
                            12 2.87  15 2.87  11 2.93  48 2.93
  21  0.677  0.750  0.553-  42 2.35  46 2.35  37 2.41  39 2.47  27 2.71  31 2.71   6 2.80   4 2.80
                            12 2.87  15 2.87  11 2.93  48 2.93
  22  0.927  0.250  0.947-  43 2.35  47 2.35  38 2.41  32 2.47  24 2.71  28 2.71   7 2.80   5 2.80
                             9 2.87  13 2.87  12 2.93  15 2.93
  23  0.927  0.750  0.947-  43 2.35  47 2.35  39 2.41  33 2.47  24 2.71  28 2.71   8 2.80   6 2.80
                             9 2.87  13 2.87  12 2.93  15 2.93
  24  0.073  0.000  0.053-  32 2.35  33 2.35  40 2.41  43 2.47  22 2.71  23 2.71   9 2.80  10 2.80
                             7 2.87   8 2.87   1 2.93   2 2.93
  25  0.323  0.000  0.447-  34 2.35  35 2.35  41 2.41  40 2.47  16 2.71  17 2.71  10 2.80  11 2.80
                             1 2.87   2 2.87   3 2.93   4 2.93
  26  0.573  0.000  0.053-  36 2.35  37 2.35  42 2.41  41 2.47  18 2.71  19 2.71  11 2.80  12 2.80
                             3 2.87   4 2.87   5 2.93   6 2.93
  27  0.823  0.000  0.447-  38 2.35  39 2.35  43 2.41  42 2.47  20 2.71  21 2.71  12 2.80   9 2.80
                             5 2.87   6 2.87   7 2.93   8 2.93
  28  0.073  0.500  0.053-  32 2.35  33 2.35  44 2.41  47 2.47  22 2.71  23 2.71  13 2.80  14 2.80
                             7 2.87   8 2.87   1 2.93   2 2.93
  29  0.323  0.500  0.447-  34 2.35  35 2.35  45 2.41  44 2.47  16 2.71  17 2.71  14 2.80  48 2.80
                             1 2.87   2 2.87   3 2.93   4 2.93
  30  0.573  0.500  0.053-  36 2.35  37 2.35  46 2.41  45 2.47  18 2.71  19 2.71  48 2.80  15 2.80
                             3 2.87   4 2.87   5 2.93   6 2.93
  31  0.823  0.500  0.447-  38 2.35  39 2.35  47 2.41  46 2.47  20 2.71  21 2.71  15 2.80  13 2.80
                             5 2.87   6 2.87   7 2.93   8 2.93
  32  0.125  0.250  0.878-  24 2.35  28 2.35  16 2.41  22 2.47  10 2.52  14 2.52   1 2.58  13 2.77
                             9 2.77
  33  0.125  0.750  0.878-  24 2.35  28 2.35  17 2.41  23 2.47  10 2.52  14 2.52   2 2.58  13 2.77
                             9 2.77
  34  0.375  0.250  0.622-  25 2.35  29 2.35  18 2.41  16 2.47  11 2.52  48 2.52   3 2.58  14 2.77
                            10 2.77
  35  0.375  0.750  0.622-  25 2.35  29 2.35  19 2.41  17 2.47  11 2.52  48 2.52   4 2.58  14 2.77
                            10 2.77
  36  0.625  0.250  0.878-  26 2.35  30 2.35  20 2.41  18 2.47  12 2.52  15 2.52   5 2.58  11 2.77
                            48 2.77
  37  0.625  0.750  0.878-  26 2.35  30 2.35  21 2.41  19 2.47  12 2.52  15 2.52   6 2.58  11 2.77
                            48 2.77
  38  0.875  0.250  0.622-  27 2.35  31 2.35  22 2.41  20 2.47   9 2.52  13 2.52   7 2.58  12 2.77
                            15 2.77
  39  0.875  0.750  0.622-  27 2.35  31 2.35  23 2.41  21 2.47   9 2.52  13 2.52   8 2.58  12 2.77
                            15 2.77
  40  0.125  0.000  0.378-  16 2.35  17 2.35  24 2.41  25 2.47   7 2.52   8 2.52   9 2.58   2 2.77
                             1 2.77
  41  0.375  0.000  0.122-  18 2.35  19 2.35  25 2.41  26 2.47   1 2.52   2 2.52  10 2.58   4 2.77
                             3 2.77
  42  0.625  0.000  0.378-  20 2.35  21 2.35  26 2.41  27 2.47   3 2.52   4 2.52  11 2.58   6 2.77
                             5 2.77
  43  0.875  0.000  0.122-  22 2.35  23 2.35  27 2.41  24 2.47   5 2.52   6 2.52  12 2.58   8 2.77
                             7 2.77
  44  0.125  0.500  0.378-  16 2.35  17 2.35  28 2.41  29 2.47   7 2.52   8 2.52  13 2.58   2 2.77
                             1 2.77
  45  0.375  0.500  0.122-  18 2.35  19 2.35  29 2.41  30 2.47   1 2.52   2 2.52  14 2.58   4 2.77
                             3 2.77
  46  0.625  0.500  0.378-  20 2.35  21 2.35  30 2.41  31 2.47   3 2.52   4 2.52  48 2.58   6 2.77
                             5 2.77
  47  0.875  0.500  0.122-  22 2.35  23 2.35  31 2.41  28 2.47   5 2.52   6 2.52  15 2.58   8 2.77
                             7 2.77
  48  0.508  0.500  0.678-  34 2.52  35 2.52  46 2.58  37 2.77  36 2.77  30 2.80  29 2.80  19 2.87
                            18 2.87  21 2.93  20 2.93
 
  LATTYP: Found a simple orthorhombic cell.
 ALAT       =     7.1503114860
 B/A-ratio  =     1.0555008508
 C/A-ratio  =     1.7085169161
  
  Lattice vectors:
  
 A1 = (   0.0000000000,   0.0000000000,  -7.1503114860)
 A2 = (   0.0000000000,  -7.5471598569,   0.0000000000)
 A3 = ( -12.2164281289,   0.0000000000,   0.0000000000)


Analysis of symmetry for initial positions (statically):
=====================================================================
 Subroutine PRICEL returns:
 Original cell was already a primitive cell.
 

 Routine SETGRP: Setting up the symmetry group for a 
 simple orthorhombic supercell.


 Subroutine GETGRP returns: Found  2 space group operations
 (whereof  2 operations were pure point group operations)
 out of a pool of  8 trial point group operations.


The static configuration has the point symmetry C_1h.


Analysis of symmetry for dynamics (positions and initial velocities):
=====================================================================
 Subroutine PRICEL returns:
 Original cell was already a primitive cell.
 

 Routine SETGRP: Setting up the symmetry group for a 
 simple orthorhombic supercell.


 Subroutine GETGRP returns: Found  2 space group operations
 (whereof  2 operations were pure point group operations)
 out of a pool of  8 trial point group operations.


The dynamic configuration has the point symmetry C_1h.


Analysis of structural, dynamic, and magnetic symmetry:
=====================================================================
 Subroutine PRICEL returns:
 Original cell was already a primitive cell.
 

 Routine SETGRP: Setting up the symmetry group for a 
 simple orthorhombic supercell.


 Subroutine GETGRP returns: Found  2 space group operations
 (whereof  2 operations were pure point group operations)
 out of a pool of  8 trial point group operations.


The magnetic configuration has the point symmetry C_1h.


 Subroutine INISYM returns: Found  2 space group operations
 (whereof  2 operations are pure point group operations),
 and found     1 'primitive' translations


----------------------------------------------------------------------------------------

                                     Primitive cell                                     

  volume of cell :     659.2540

  direct lattice vectors                    reciprocal lattice vectors
    12.216428129  0.000000000  0.000000000     0.081856987  0.000000000  0.000000000
     0.000000000  7.547159857  0.000000000     0.000000000  0.132500175  0.000000000
     0.000000000  0.000000000  7.150311486     0.000000000  0.000000000  0.139854047

  length of vectors
    12.216428129  7.547159857  7.150311486     0.081856987  0.132500175  0.139854047

  position of ions in fractional coordinates (direct lattice)
     0.241899997  0.250000000  0.178299993
     0.241899997  0.750000000  0.178299993
     0.491899997  0.250000000  0.321700007
     0.491899997  0.750000000  0.321700007
     0.741900027  0.250000000  0.178299993
     0.741900027  0.750000000  0.178299993
     0.991900027  0.250000000  0.321700007
     0.991900027  0.750000000  0.321700007
     0.008100000  0.000000000  0.678300023
     0.258100003  0.000000000  0.821699977
     0.508099973  0.000000000  0.678300023
     0.758099973  0.000000000  0.821699977
     0.008100000  0.500000000  0.678300023
     0.258100003  0.500000000  0.821699977
     0.758099973  0.500000000  0.821699977
     0.176699996  0.250000000  0.553300023
     0.176699996  0.750000000  0.553300023
     0.426699996  0.250000000  0.946699977
     0.426699996  0.750000000  0.946699977
     0.676699996  0.250000000  0.553300023
     0.676699996  0.750000000  0.553300023
     0.926699996  0.250000000  0.946699977
     0.926699996  0.750000000  0.946699977
     0.073299997  0.000000000  0.053300001
     0.323300004  0.000000000  0.446700007
     0.573300004  0.000000000  0.053300001
     0.823300004  0.000000000  0.446700007
     0.073299997  0.500000000  0.053300001
     0.323300004  0.500000000  0.446700007
     0.573300004  0.500000000  0.053300001
     0.823300004  0.500000000  0.446700007
     0.125249997  0.250000000  0.878300011
     0.125249997  0.750000000  0.878300011
     0.375250012  0.250000000  0.621699989
     0.375250012  0.750000000  0.621699989
     0.625249982  0.250000000  0.878300011
     0.625249982  0.750000000  0.878300011
     0.875249982  0.250000000  0.621699989
     0.875249982  0.750000000  0.621699989
     0.124750003  0.000000000  0.378300011
     0.374749988  0.000000000  0.121699996
     0.624750018  0.000000000  0.378300011
     0.874750018  0.000000000  0.121699996
     0.124750003  0.500000000  0.378300011
     0.374749988  0.500000000  0.121699996
     0.624750018  0.500000000  0.378300011
     0.874750018  0.500000000  0.121699996
     0.508099973  0.500000000  0.678300023

  ion indices of the primitive-cell ions
   primitive index   ion index
                 1           1
                 2           2
                 3           3
                 4           4
                 5           5
                 6           6
                 7           7
                 8           8
                 9           9
                10          10
                11          11
                12          12
                13          13
                14          14
                15          15
                16          16
                17          17
                18          18
                19          19
                20          20
                21          21
                22          22
                23          23
                24          24
                25          25
                26          26
                27          27
                28          28
                29          29
                30          30
                31          31
                32          32
                33          33
                34          34
                35          35
                36          36
                37          37
                38          38
                39          39
                40          40
                41          41
                42          42
                43          43
                44          44
                45          45
                46          46
                47          47
                48          48

----------------------------------------------------------------------------------------

 
 
 KPOINTS: Auto                                    

Automatic generation of k-mesh.
Space group operators:
 irot       det(A)        alpha          n_x          n_y          n_z        tau_x        tau_y        tau_z
    1     1.000000     0.000000     1.000000     0.000000     0.000000     0.000000     0.000000     0.000000
    2    -1.000000   180.000000     0.000000     1.000000     0.000000     0.000000     0.000000     0.000000
 
 Subroutine IBZKPT returns following result:
 ===========================================
 
 Found     60 irreducible k-points:
 
 Following reciprocal coordinates:
            Coordinates               Weight
  0.000000  0.000000  0.000000      1.000000
  0.250000  0.000000  0.000000      2.000000
  0.500000  0.000000  0.000000      1.000000
  0.000000  0.142857  0.000000      2.000000
  0.250000  0.142857  0.000000      4.000000
  0.500000  0.142857  0.000000      2.000000
  0.000000  0.285714  0.000000      2.000000
  0.250000  0.285714  0.000000      4.000000
  0.500000  0.285714  0.000000      2.000000
  0.000000  0.428571  0.000000      2.000000
  0.250000  0.428571  0.000000      4.000000
  0.500000  0.428571  0.000000      2.000000
  0.000000  0.000000  0.142857      2.000000
  0.250000  0.000000  0.142857      2.000000
 -0.250000  0.000000  0.142857      2.000000
  0.500000  0.000000  0.142857      2.000000
  0.000000  0.142857  0.142857      4.000000
  0.250000  0.142857  0.142857      4.000000
 -0.250000 -0.142857  0.142857      4.000000
  0.500000  0.142857  0.142857      4.000000
  0.000000  0.285714  0.142857      4.000000
  0.250000  0.285714  0.142857      4.000000
 -0.250000 -0.285714  0.142857      4.000000
  0.500000  0.285714  0.142857      4.000000
  0.000000  0.428571  0.142857      4.000000
  0.250000  0.428571  0.142857      4.000000
 -0.250000 -0.428571  0.142857      4.000000
  0.500000  0.428571  0.142857      4.000000
  0.000000  0.000000  0.285714      2.000000
  0.250000  0.000000  0.285714      2.000000
 -0.250000  0.000000  0.285714      2.000000
  0.500000  0.000000  0.285714      2.000000
  0.000000  0.142857  0.285714      4.000000
  0.250000  0.142857  0.285714      4.000000
 -0.250000 -0.142857  0.285714      4.000000
  0.500000  0.142857  0.285714      4.000000
  0.000000  0.285714  0.285714      4.000000
  0.250000  0.285714  0.285714      4.000000
 -0.250000 -0.285714  0.285714      4.000000
  0.500000  0.285714  0.285714      4.000000
  0.000000  0.428571  0.285714      4.000000
  0.250000  0.428571  0.285714      4.000000
 -0.250000 -0.428571  0.285714      4.000000
  0.500000  0.428571  0.285714      4.000000
  0.000000  0.000000  0.428571      2.000000
  0.250000  0.000000  0.428571      2.000000
 -0.250000  0.000000  0.428571      2.000000
  0.500000  0.000000  0.428571      2.000000
  0.000000  0.142857  0.428571      4.000000
  0.250000  0.142857  0.428571      4.000000
 -0.250000 -0.142857  0.428571      4.000000
  0.500000  0.142857  0.428571      4.000000
  0.000000  0.285714  0.428571      4.000000
  0.250000  0.285714  0.428571      4.000000
 -0.250000 -0.285714  0.428571      4.000000
  0.500000  0.285714  0.428571      4.000000
  0.000000  0.428571  0.428571      4.000000
  0.250000  0.428571  0.428571      4.000000
 -0.250000 -0.428571  0.428571      4.000000
  0.500000  0.428571  0.428571      4.000000
 
 Following cartesian coordinates:
            Coordinates               Weight
  0.000000  0.000000  0.000000      1.000000
  0.020771  0.000000  0.000000      2.000000
  0.041542  0.000000  0.000000      1.000000
  0.000000  0.019213  0.000000      2.000000
  0.020771  0.019213  0.000000      4.000000
  0.041542  0.019213  0.000000      2.000000
  0.000000  0.038425  0.000000      2.000000
  0.020771  0.038425  0.000000      4.000000
  0.041542  0.038425  0.000000      2.000000
  0.000000  0.057638  0.000000      2.000000
  0.020771  0.057638  0.000000      4.000000
  0.041542  0.057638  0.000000      2.000000
  0.000000  0.000000  0.020279      2.000000
  0.020771  0.000000  0.020279      2.000000
 -0.020771  0.000000  0.020279      2.000000
  0.041542  0.000000  0.020279      2.000000
  0.000000  0.019213  0.020279      4.000000
  0.020771  0.019213  0.020279      4.000000
 -0.020771 -0.019213  0.020279      4.000000
  0.041542  0.019213  0.020279      4.000000
  0.000000  0.038425  0.020279      4.000000
  0.020771  0.038425  0.020279      4.000000
 -0.020771 -0.038425  0.020279      4.000000
  0.041542  0.038425  0.020279      4.000000
  0.000000  0.057638  0.020279      4.000000
  0.020771  0.057638  0.020279      4.000000
 -0.020771 -0.057638  0.020279      4.000000
  0.041542  0.057638  0.020279      4.000000
  0.000000  0.000000  0.040558      2.000000
  0.020771  0.000000  0.040558      2.000000
 -0.020771  0.000000  0.040558      2.000000
  0.041542  0.000000  0.040558      2.000000
  0.000000  0.019213  0.040558      4.000000
  0.020771  0.019213  0.040558      4.000000
 -0.020771 -0.019213  0.040558      4.000000
  0.041542  0.019213  0.040558      4.000000
  0.000000  0.038425  0.040558      4.000000
  0.020771  0.038425  0.040558      4.000000
 -0.020771 -0.038425  0.040558      4.000000
  0.041542  0.038425  0.040558      4.000000
  0.000000  0.057638  0.040558      4.000000
  0.020771  0.057638  0.040558      4.000000
 -0.020771 -0.057638  0.040558      4.000000
  0.041542  0.057638  0.040558      4.000000
  0.000000  0.000000  0.060837      2.000000
  0.020771  0.000000  0.060837      2.000000
 -0.020771  0.000000  0.060837      2.000000
  0.041542  0.000000  0.060837      2.000000
  0.000000  0.019213  0.060837      4.000000
  0.020771  0.019213  0.060837      4.000000
 -0.020771 -0.019213  0.060837      4.000000
  0.041542  0.019213  0.060837      4.000000
  0.000000  0.038425  0.060837      4.000000
  0.020771  0.038425  0.060837      4.000000
 -0.020771 -0.038425  0.060837      4.000000
  0.041542  0.038425  0.060837      4.000000
  0.000000  0.057638  0.060837      4.000000
  0.020771  0.057638  0.060837      4.000000
 -0.020771 -0.057638  0.060837      4.000000
  0.041542  0.057638  0.060837      4.000000
 


--------------------------------------------------------------------------------------------------------




 Dimension of arrays:
   k-points           NKPTS =     60   k-points in BZ     NKDIM =     60   number of bands    NBANDS=    360
   number of dos      NEDOS =    301   number of ions     NIONS =     48
   non local maximal  LDIM  =      6   non local SUM 2l+1 LMDIM =     18
   total plane-waves  NPLWV = 243000
   max r-space proj   IRMAX =      1   max aug-charges    IRDMAX=  20231
   dimension x,y,z NGX =    90 NGY =   54 NGZ =   50
   dimension x,y,z NGXF=   180 NGYF=  108 NGZF=  100
   support grid    NGXF=   180 NGYF=  108 NGZF=  100
   ions per type =              15  16  16   1
   NGX,Y,Z   is equivalent  to a cutoff of  12.25, 11.89, 11.63 a.u.
   NGXF,Y,Z  is equivalent  to a cutoff of  24.50, 23.79, 23.25 a.u.

 SYSTEM =  MnFeNiGe_mag_orth-scf                   
 POSCAR =  MnNiGe_orth                             

 Startparameter for this run:
   NWRITE =      2    write-flag & timer
   PREC   = accura    normal or accurate (medium, high low for compatibility)
   ISTART =      0    job   : 0-new  1-cont  2-samecut
   ICHARG =      2    charge: 1-file 2-atom 10-const
   ISPIN  =      2    spin polarized calculation?
   LNONCOLLINEAR =      F non collinear calculations
   LSORBIT =      F    spin-orbit coupling
   INIWAV =      1    electr: 0-lowe 1-rand  2-diag
   LASPH  =      F    aspherical Exc in radial PAW
   METAGGA=      F    non-selfconsistent MetaGGA calc.

 Electronic Relaxation 1
   ENCUT  =  450.0 eV  33.07 Ry    5.75 a.u.  21.13 13.05 12.37*2*pi/ulx,y,z
   ENINI  =  450.0     initial cutoff
   ENAUG  =  544.6 eV  augmentation charge cutoff
   NELM   =     60;   NELMIN=  5; NELMDL= -5     # of ELM steps 
   EDIFF  = 0.1E-05   stopping-criterion for ELM
   LREAL  =      F    real-space projection
   NLSPLINE    = F    spline interpolate recip. space projectors
   LCOMPAT=      F    compatible to vasp.4.4
   GGA_COMPAT  = T    GGA compatible to vasp.4.4-vasp.4.6
   LMAXPAW     = -100 max onsite density
   LMAXMIX     =    2 max onsite mixed and CHGCAR
   VOSKOWN=      0    Vosko Wilk Nusair interpolation
   ROPT   =    0.00000   0.00000   0.00000   0.00000
 Ionic relaxation
   EDIFFG = 0.1E-04   stopping-criterion for IOM
   NSW    =      0    number of steps for IOM
   NBLOCK =      1;   KBLOCK =      1    inner block; outer block 
   IBRION =     -1    ionic relax: 0-MD 1-quasi-New 2-CG
   NFREE  =      0    steps in history (QN), initial steepest desc. (CG)
   ISIF   =      6    stress and relaxation
   IWAVPR =     10    prediction:  0-non 1-charg 2-wave 3-comb
   ISYM   =      2    0-nonsym 1-usesym 2-fastsym
   LCORR  =      T    Harris-Foulkes like correction to forces

   POTIM  = 0.5000    time-step for ionic-motion
   TEIN   =    0.0    initial temperature
   TEBEG  =    0.0;   TEEND  =   0.0 temperature during run
   SMASS  =  -3.00    Nose mass-parameter (am)
   estimated Nose-frequenzy (Omega)   =  0.10E-29 period in steps = 0.13E+47 mass=  -0.341E-26a.u.
   SCALEE = 1.0000    scale energy and forces
   NPACO  =    256;   APACO  = 16.0  distance and # of slots for P.C.
   PSTRESS=    0.0 pullay stress

  Mass of Ions in am
   POMASS =  54.94 58.69 72.61 55.85
  Ionic Valenz
   ZVAL   =   7.00 10.00  4.00  8.00
  Atomic Wigner-Seitz radii
   RWIGS  =  -1.00 -1.00 -1.00 -1.00
  virtual crystal weights 
   VCA    =   1.00  1.00  1.00  1.00
   NELECT =     337.0000    total number of electrons
   NUPDOWN=      -1.0000    fix difference up-down

 DOS related values:
   EMIN   =  10.00;   EMAX   =-10.00  energy-range for DOS
   EFERMI =   0.00
   ISMEAR =     1;   SIGMA  =   0.20  broadening in eV -4-tet -1-fermi 0-gaus

 Electronic relaxation 2 (details)
   IALGO  =     38    algorithm
   LDIAG  =      T    sub-space diagonalisation (order eigenvalues)
   LSUBROT=      F    optimize rotation matrix (better conditioning)
   TURBO    =      0    0=normal 1=particle mesh
   IRESTART =      0    0=no restart 2=restart with 2 vectors
   NREBOOT  =      0    no. of reboots
   NMIN     =      0    reboot dimension
   EREF     =   0.00    reference energy to select bands
   IMIX   =      4    mixing-type and parameters
     AMIX     =   0.40;   BMIX     =  1.00
     AMIX_MAG =   1.60;   BMIX_MAG =  1.00
     AMIN     =   0.10
     WC   =   100.;   INIMIX=   1;  MIXPRE=   1;  MAXMIX= -45

 Intra band minimization:
   WEIMIN = 0.0000     energy-eigenvalue tresh-hold
   EBREAK =  0.69E-09  absolut break condition
   DEPER  =   0.30     relativ break condition  

   TIME   =   0.40     timestep for ELM

  volume/ion in A,a.u.               =      13.73        92.68
  Fermi-wavevector in a.u.,A,eV,Ry     =   1.308983  2.473618 23.312705  1.713435
  Thomas-Fermi vector in A             =   2.439612
 
 Write flags
   LWAVE        =      F    write WAVECAR
   LDOWNSAMPLE  =      F    k-point downsampling of WAVECAR
   LCHARG       =      T    write CHGCAR
   LVTOT        =      F    write LOCPOT, total local potential
   LVHAR        =      F    write LOCPOT, Hartree potential only
   LELF         =      F    write electronic localiz. function (ELF)
   LORBIT       =     11    0 simple, 1 ext, 2 COOP (PROOUT), +10 PAW based schemes


 Dipole corrections
   LMONO  =      F    monopole corrections only (constant potential shift)
   LDIPOL =      F    correct potential (dipole corrections)
   IDIPOL =      0    1-x, 2-y, 3-z, 4-all directions 
   EPSILON=  1.0000000 bulk dielectric constant

 Exchange correlation treatment:
   GGA     =    --    GGA type
   LEXCH   =     8    internal setting for exchange type
   VOSKOWN=      0    Vosko Wilk Nusair interpolation
   LHFCALC =     F    Hartree Fock is set to
   LHFONE  =     F    Hartree Fock one center treatment
   AEXX    =    0.0000 exact exchange contribution

 Linear response parameters
   LEPSILON=     F    determine dielectric tensor
   LRPA    =     F    only Hartree local field effects (RPA)
   LNABLA  =     F    use nabla operator in PAW spheres
   LVEL    =     F    velocity operator in full k-point grid
   LINTERFAST=   F  fast interpolation
   KINTER  =     0    interpolate to denser k-point grid
   CSHIFT  =0.1000    complex shift for real part using Kramers Kronig
   OMEGAMAX=  -1.0    maximum frequency
   DEG_THRESHOLD= 0.2000000E-02 threshold for treating states as degnerate
   RTIME   =   -0.100 relaxation time in fs
  (WPLASMAI=    0.000 imaginary part of plasma frequency in eV, 0.658/RTIME)
   DFIELD  = 0.0000000 0.0000000 0.0000000 field for delta impulse in time
 
 Orbital magnetization related:
   ORBITALMAG=     F  switch on orbital magnetization
   LCHIMAG   =     F  perturbation theory with respect to B field
   DQ        =  0.001000  dq finite difference perturbation B field
   LLRAUG    =     F  two centre corrections for induced B field



--------------------------------------------------------------------------------------------------------


 Static calculation
 charge density and potential will be updated during run
 spin polarized calculation
 Variant of blocked Davidson
 Davidson routine will perform the subspace rotation
 perform sub-space diagonalisation
    after iterative eigenvector-optimisation
 modified Broyden-mixing scheme, WC =      100.0
 initial mixing is a Kerker type mixing with AMIX =  0.4000 and BMIX =      1.0000
 Hartree-type preconditioning will be used
 using additional bands          191
 reciprocal scheme for non local part
 use partial core corrections
 calculate Harris-corrections to forces 
   (improved forces if not selfconsistent)
 use gradient corrections 
 use of overlap-Matrix (Vanderbilt PP)
 Methfessel and Paxton  Order N= 1 SIGMA  =   0.20


--------------------------------------------------------------------------------------------------------


  energy-cutoff  :      450.00
  volume of cell :      659.25
      direct lattice vectors                 reciprocal lattice vectors
    12.216428129  0.000000000  0.000000000     0.081856987  0.000000000  0.000000000
     0.000000000  7.547159857  0.000000000     0.000000000  0.132500175  0.000000000
     0.000000000  0.000000000  7.150311486     0.000000000  0.000000000  0.139854047

  length of vectors
    12.216428129  7.547159857  7.150311486     0.081856987  0.132500175  0.139854047


 
 k-points in units of 2pi/SCALE and weight: Auto                                    
   0.00000000  0.00000000  0.00000000       0.005
   0.02077121  0.00000000  0.00000000       0.010
   0.04154242  0.00000000  0.00000000       0.005
   0.00000000  0.01921253  0.00000000       0.010
   0.02077121  0.01921253  0.00000000       0.020
   0.04154242  0.01921253  0.00000000       0.010
   0.00000000  0.03842505  0.00000000       0.010
   0.02077121  0.03842505  0.00000000       0.020
   0.04154242  0.03842505  0.00000000       0.010
   0.00000000  0.05763758  0.00000000       0.010
   0.02077121  0.05763758  0.00000000       0.020
   0.04154242  0.05763758  0.00000000       0.010
   0.00000000  0.00000000  0.02027884       0.010
   0.02077121  0.00000000  0.02027884       0.010
  -0.02077121  0.00000000  0.02027884       0.010
   0.04154242  0.00000000  0.02027884       0.010
   0.00000000  0.01921253  0.02027884       0.020
   0.02077121  0.01921253  0.02027884       0.020
  -0.02077121 -0.01921253  0.02027884       0.020
   0.04154242  0.01921253  0.02027884       0.020
   0.00000000  0.03842505  0.02027884       0.020
   0.02077121  0.03842505  0.02027884       0.020
  -0.02077121 -0.03842505  0.02027884       0.020
   0.04154242  0.03842505  0.02027884       0.020
   0.00000000  0.05763758  0.02027884       0.020
   0.02077121  0.05763758  0.02027884       0.020
  -0.02077121 -0.05763758  0.02027884       0.020
   0.04154242  0.05763758  0.02027884       0.020
   0.00000000  0.00000000  0.04055767       0.010
   0.02077121  0.00000000  0.04055767       0.010
  -0.02077121  0.00000000  0.04055767       0.010
   0.04154242  0.00000000  0.04055767       0.010
   0.00000000  0.01921253  0.04055767       0.020
   0.02077121  0.01921253  0.04055767       0.020
  -0.02077121 -0.01921253  0.04055767       0.020
   0.04154242  0.01921253  0.04055767       0.020
   0.00000000  0.03842505  0.04055767       0.020
   0.02077121  0.03842505  0.04055767       0.020
  -0.02077121 -0.03842505  0.04055767       0.020
   0.04154242  0.03842505  0.04055767       0.020
   0.00000000  0.05763758  0.04055767       0.020
   0.02077121  0.05763758  0.04055767       0.020
  -0.02077121 -0.05763758  0.04055767       0.020
   0.04154242  0.05763758  0.04055767       0.020
   0.00000000  0.00000000  0.06083651       0.010
   0.02077121  0.00000000  0.06083651       0.010
  -0.02077121  0.00000000  0.06083651       0.010
   0.04154242  0.00000000  0.06083651       0.010
   0.00000000  0.01921253  0.06083651       0.020
   0.02077121  0.01921253  0.06083651       0.020
  -0.02077121 -0.01921253  0.06083651       0.020
   0.04154242  0.01921253  0.06083651       0.020
   0.00000000  0.03842505  0.06083651       0.020
   0.02077121  0.03842505  0.06083651       0.020
  -0.02077121 -0.03842505  0.06083651       0.020
   0.04154242  0.03842505  0.06083651       0.020
   0.00000000  0.05763758  0.06083651       0.020
   0.02077121  0.05763758  0.06083651       0.020
  -0.02077121 -0.05763758  0.06083651       0.020
   0.04154242  0.05763758  0.06083651       0.020
 
 k-points in reciprocal lattice and weights: Auto                                    
   0.00000000  0.00000000  0.00000000       0.005
   0.25000000  0.00000000  0.00000000       0.010
   0.50000000  0.00000000  0.00000000       0.005
   0.00000000  0.14285714  0.00000000       0.010
   0.25000000  0.14285714  0.00000000       0.020
   0.50000000  0.14285714  0.00000000       0.010
   0.00000000  0.28571429  0.00000000       0.010
   0.25000000  0.28571429  0.00000000       0.020
   0.50000000  0.28571429  0.00000000       0.010
   0.00000000  0.42857143  0.00000000       0.010
   0.25000000  0.42857143  0.00000000       0.020
   0.50000000  0.42857143  0.00000000       0.010
   0.00000000  0.00000000  0.14285714       0.010
   0.25000000  0.00000000  0.14285714       0.010
  -0.25000000  0.00000000  0.14285714       0.010
   0.50000000  0.00000000  0.14285714       0.010
   0.00000000  0.14285714  0.14285714       0.020
   0.25000000  0.14285714  0.14285714       0.020
  -0.25000000 -0.14285714  0.14285714       0.020
   0.50000000  0.14285714  0.14285714       0.020
   0.00000000  0.28571429  0.14285714       0.020
   0.25000000  0.28571429  0.14285714       0.020
  -0.25000000 -0.28571429  0.14285714       0.020
   0.50000000  0.28571429  0.14285714       0.020
   0.00000000  0.42857143  0.14285714       0.020
   0.25000000  0.42857143  0.14285714       0.020
  -0.25000000 -0.42857143  0.14285714       0.020
   0.50000000  0.42857143  0.14285714       0.020
   0.00000000  0.00000000  0.28571429       0.010
   0.25000000  0.00000000  0.28571429       0.010
  -0.25000000  0.00000000  0.28571429       0.010
   0.50000000  0.00000000  0.28571429       0.010
   0.00000000  0.14285714  0.28571429       0.020
   0.25000000  0.14285714  0.28571429       0.020
  -0.25000000 -0.14285714  0.28571429       0.020
   0.50000000  0.14285714  0.28571429       0.020
   0.00000000  0.28571429  0.28571429       0.020
   0.25000000  0.28571429  0.28571429       0.020
  -0.25000000 -0.28571429  0.28571429       0.020
   0.50000000  0.28571429  0.28571429       0.020
   0.00000000  0.42857143  0.28571429       0.020
   0.25000000  0.42857143  0.28571429       0.020
  -0.25000000 -0.42857143  0.28571429       0.020
   0.50000000  0.42857143  0.28571429       0.020
   0.00000000  0.00000000  0.42857143       0.010
   0.25000000  0.00000000  0.42857143       0.010
  -0.25000000  0.00000000  0.42857143       0.010
   0.50000000  0.00000000  0.42857143       0.010
   0.00000000  0.14285714  0.42857143       0.020
   0.25000000  0.14285714  0.42857143       0.020
  -0.25000000 -0.14285714  0.42857143       0.020
   0.50000000  0.14285714  0.42857143       0.020
   0.00000000  0.28571429  0.42857143       0.020
   0.25000000  0.28571429  0.42857143       0.020
  -0.25000000 -0.28571429  0.42857143       0.020
   0.50000000  0.28571429  0.42857143       0.020
   0.00000000  0.42857143  0.42857143       0.020
   0.25000000  0.42857143  0.42857143       0.020
  -0.25000000 -0.42857143  0.42857143       0.020
   0.50000000  0.42857143  0.42857143       0.020
 
 position of ions in fractional coordinates (direct lattice) 
   0.24190000  0.25000000  0.17829999
   0.24190000  0.75000000  0.17829999
   0.49190000  0.25000000  0.32170001
   0.49190000  0.75000000  0.32170001
   0.74190003  0.25000000  0.17829999
   0.74190003  0.75000000  0.17829999
   0.99190003  0.25000000  0.32170001
   0.99190003  0.75000000  0.32170001
   0.00810000  0.00000000  0.67830002
   0.25810000  0.00000000  0.82169998
   0.50809997  0.00000000  0.67830002
   0.75809997  0.00000000  0.82169998
   0.00810000  0.50000000  0.67830002
   0.25810000  0.50000000  0.82169998
   0.75809997  0.50000000  0.82169998
   0.17670000  0.25000000  0.55330002
   0.17670000  0.75000000  0.55330002
   0.42670000  0.25000000  0.94669998
   0.42670000  0.75000000  0.94669998
   0.67670000  0.25000000  0.55330002
   0.67670000  0.75000000  0.55330002
   0.92670000  0.25000000  0.94669998
   0.92670000  0.75000000  0.94669998
   0.07330000  0.00000000  0.05330000
   0.32330000  0.00000000  0.44670001
   0.57330000  0.00000000  0.05330000
   0.82330000  0.00000000  0.44670001
   0.07330000  0.50000000  0.05330000
   0.32330000  0.50000000  0.44670001
   0.57330000  0.50000000  0.05330000
   0.82330000  0.50000000  0.44670001
   0.12525000  0.25000000  0.87830001
   0.12525000  0.75000000  0.87830001
   0.37525001  0.25000000  0.62169999
   0.37525001  0.75000000  0.62169999
   0.62524998  0.25000000  0.87830001
   0.62524998  0.75000000  0.87830001
   0.87524998  0.25000000  0.62169999
   0.87524998  0.75000000  0.62169999
   0.12475000  0.00000000  0.37830001
   0.37474999  0.00000000  0.12170000
   0.62475002  0.00000000  0.37830001
   0.87475002  0.00000000  0.12170000
   0.12475000  0.50000000  0.37830001
   0.37474999  0.50000000  0.12170000
   0.62475002  0.50000000  0.37830001
   0.87475002  0.50000000  0.12170000
   0.50809997  0.50000000  0.67830002
 
 position of ions in cartesian coordinates  (Angst):
   2.95515393  1.88678996  1.27490049
   2.95515393  5.66036989  1.27490049
   6.00926096  1.88678996  2.30025526
   6.00926096  5.66036989  2.30025526
   9.06336836  1.88678996  1.27490049
   9.06336836  5.66036989  1.27490049
  12.11747539  1.88678996  2.30025526
  12.11747539  5.66036989  2.30025526
   0.09895307  0.00000000  4.85005645
   3.15306014  0.00000000  5.87541078
   6.20716680  0.00000000  4.85005645
   9.26127383  0.00000000  5.87541078
   0.09895307  3.77357993  4.85005645
   3.15306014  3.77357993  5.87541078
   9.26127383  3.77357993  5.87541078
   2.15864280  1.88678996  3.95626751
   2.15864280  5.66036989  3.95626751
   5.21274983  1.88678996  6.76919972
   5.21274983  5.66036989  6.76919972
   8.26685687  1.88678996  3.95626751
   8.26685687  5.66036989  3.95626751
  11.32096390  1.88678996  6.76919972
  11.32096390  5.66036989  6.76919972
   0.89546415  0.00000000  0.38111161
   3.94957126  0.00000000  3.19404419
   7.00367830  0.00000000  0.38111161
  10.05778533  0.00000000  3.19404419
   0.89546415  3.77357993  0.38111161
   3.94957126  3.77357993  3.19404419
   7.00367830  3.77357993  0.38111161
  10.05778533  3.77357993  3.19404419
   1.53010759  1.88678996  6.28011866
   1.53010759  5.66036989  6.28011866
   4.58421480  1.88678996  4.44534857
   4.58421480  5.66036989  4.44534857
   7.63832147  1.88678996  6.28011866
   7.63832147  5.66036989  6.28011866
  10.69242850  1.88678996  4.44534857
  10.69242850  5.66036989  4.44534857
   1.52399945  0.00000000  2.70496291
   4.57810629  0.00000000  0.87019288
   7.63221369  0.00000000  2.70496291
  10.68632073  0.00000000  0.87019288
   1.52399945  3.77357993  2.70496291
   4.57810629  3.77357993  0.87019288
   7.63221369  3.77357993  2.70496291
  10.68632073  3.77357993  0.87019288
   6.20716680  3.77357993  4.85005645
 


--------------------------------------------------------------------------------------------------------


 k-point   1 :   0.0000 0.0000 0.0000  plane waves:   14253
 k-point   2 :   0.2500 0.0000 0.0000  plane waves:   14250
 k-point   3 :   0.5000 0.0000 0.0000  plane waves:   14242
 k-point   4 :   0.0000 0.1429 0.0000  plane waves:   14288
 k-point   5 :   0.2500 0.1429 0.0000  plane waves:   14295
 k-point   6 :   0.5000 0.1429 0.0000  plane waves:   14276
 k-point   7 :   0.0000 0.2857 0.0000  plane waves:   14306
 k-point   8 :   0.2500 0.2857 0.0000  plane waves:   14315
 k-point   9 :   0.5000 0.2857 0.0000  plane waves:   14288
 k-point  10 :   0.0000 0.4286 0.0000  plane waves:   14334
 k-point  11 :   0.2500 0.4286 0.0000  plane waves:   14328
 k-point  12 :   0.5000 0.4286 0.0000  plane waves:   14292
 k-point  13 :   0.0000 0.0000 0.1429  plane waves:   14271
 k-point  14 :   0.2500 0.0000 0.1429  plane waves:   14286
 k-point  15 :  -0.2500 0.0000 0.1429  plane waves:   14286
 k-point  16 :   0.5000 0.0000 0.1429  plane waves:   14270
 k-point  17 :   0.0000 0.1429 0.1429  plane waves:   14275
 k-point  18 :   0.2500 0.1429 0.1429  plane waves:   14288
 k-point  19 :  -0.2500-0.1429 0.1429  plane waves:   14288
 k-point  20 :   0.5000 0.1429 0.1429  plane waves:   14310
 k-point  21 :   0.0000 0.2857 0.1429  plane waves:   14289
 k-point  22 :   0.2500 0.2857 0.1429  plane waves:   14302
 k-point  23 :  -0.2500-0.2857 0.1429  plane waves:   14302
 k-point  24 :   0.5000 0.2857 0.1429  plane waves:   14304
 k-point  25 :   0.0000 0.4286 0.1429  plane waves:   14349
 k-point  26 :   0.2500 0.4286 0.1429  plane waves:   14308
 k-point  27 :  -0.2500-0.4286 0.1429  plane waves:   14308
 k-point  28 :   0.5000 0.4286 0.1429  plane waves:   14322
 k-point  29 :   0.0000 0.0000 0.2857  plane waves:   14297
 k-point  30 :   0.2500 0.0000 0.2857  plane waves:   14305
 k-point  31 :  -0.2500 0.0000 0.2857  plane waves:   14305
 k-point  32 :   0.5000 0.0000 0.2857  plane waves:   14282
 k-point  33 :   0.0000 0.1429 0.2857  plane waves:   14286
 k-point  34 :   0.2500 0.1429 0.2857  plane waves:   14282
 k-point  35 :  -0.2500-0.1429 0.2857  plane waves:   14282
 k-point  36 :   0.5000 0.1429 0.2857  plane waves:   14306
 k-point  37 :   0.0000 0.2857 0.2857  plane waves:   14291
 k-point  38 :   0.2500 0.2857 0.2857  plane waves:   14275
 k-point  39 :  -0.2500-0.2857 0.2857  plane waves:   14275
 k-point  40 :   0.5000 0.2857 0.2857  plane waves:   14298
 k-point  41 :   0.0000 0.4286 0.2857  plane waves:   14272
 k-point  42 :   0.2500 0.4286 0.2857  plane waves:   14295
 k-point  43 :  -0.2500-0.4286 0.2857  plane waves:   14295
 k-point  44 :   0.5000 0.4286 0.2857  plane waves:   14306
 k-point  45 :   0.0000 0.0000 0.4286  plane waves:   14272
 k-point  46 :   0.2500 0.0000 0.4286  plane waves:   14267
 k-point  47 :  -0.2500 0.0000 0.4286  plane waves:   14267
 k-point  48 :   0.5000 0.0000 0.4286  plane waves:   14296
 k-point  49 :   0.0000 0.1429 0.4286  plane waves:   14256
 k-point  50 :   0.2500 0.1429 0.4286  plane waves:   14283
 k-point  51 :  -0.2500-0.1429 0.4286  plane waves:   14283
 k-point  52 :   0.5000 0.1429 0.4286  plane waves:   14282
 k-point  53 :   0.0000 0.2857 0.4286  plane waves:   14275
 k-point  54 :   0.2500 0.2857 0.4286  plane waves:   14288
 k-point  55 :  -0.2500-0.2857 0.4286  plane waves:   14288
 k-point  56 :   0.5000 0.2857 0.4286  plane waves:   14294
 k-point  57 :   0.0000 0.4286 0.4286  plane waves:   14281
 k-point  58 :   0.2500 0.4286 0.4286  plane waves:   14276
 k-point  59 :  -0.2500-0.4286 0.4286  plane waves:   14276
 k-point  60 :   0.5000 0.4286 0.4286  plane waves:   14280

 maximum and minimum number of plane-waves per node :      2438     2341

 maximum number of plane-waves:     14349
 maximum index in each direction: 
   IXMAX=   21   IYMAX=   13   IZMAX=   12
   IXMIN=  -21   IYMIN=  -13   IZMIN=  -12


 parallel 3D FFT for wavefunctions:
    minimum data exchange during FFTs selected (reduces bandwidth)
 parallel 3D FFT for charge:
    minimum data exchange during FFTs selected (reduces bandwidth)


 total amount of memory used by VASP MPI-rank0   572406. kBytes
=======================================================================

   base      :      30000. kBytes
   nonl-proj :      85352. kBytes
   fftplans  :       4123. kBytes
   grid      :      11698. kBytes
   one-center:        248. kBytes
   wavefun   :     440985. kBytes
 
     INWAV:  cpu time    0.0010: real time    0.0084
 Broyden mixing: mesh for mixing (old mesh)
   NGX = 43   NGY = 27   NGZ = 25
  (NGX  =180   NGY  =108   NGZ  =100)
  gives a total of  29025 points

 initial charge density was supplied:
 charge density of overlapping atoms calculated
 number of electron     337.0000000 magnetization     160.0000000
 keeping initial charge density in first step


--------------------------------------------------------------------------------------------------------


 Maximum index for augmentation-charges          990 (set IRDMAX)


--------------------------------------------------------------------------------------------------------


 First call to EWALD:  gamma=   0.204
 Maximum number of real-space cells 2x 3x 3
 Maximum number of reciprocal cells 4x 2x 2

    FEWALD:  cpu time    0.0030: real time    0.0109


--------------------------------------- Iteration      1(   1)  ---------------------------------------


    POTLOK:  cpu time    0.1850: real time    0.4333
    SETDIJ:  cpu time    0.0340: real time    0.1417
     EDDAV:  cpu time  303.3819: real time  305.7777
       DOS:  cpu time    0.0390: real time    0.0867
    --------------------------------------------
      LOOP:  cpu time  303.6398: real time  306.4395

 eigenvalue-minimisations  : 86400
 total energy-change (2. order) : 0.2731315E+04  (-0.1101991E+05)
 number of electron     337.0000000 magnetization     160.0000000
 augmentation part      337.0000000 magnetization     160.0000000

 Free energy of the ion-electron system (eV)
  ---------------------------------------------------
  alpha Z        PSCENC =      1456.83667327
  Ewald energy   TEWEN  =    -21672.30509204
  -Hartree energ DENC   =     -7151.46155281
  -exchange      EXHF   =         0.00000000
  -V(xc)+E(xc)   XCENC  =       308.35353537
  PAW double counting   =     23377.83946347   -23998.34197029
  entropy T*S    EENTRO =        -0.00060509
  eigenvalues    EBANDS =      4642.16737480
  atomic energy  EATOM  =     25768.22672671
  Solvation  Ediel_sol  =         0.00000000
  ---------------------------------------------------
  free energy    TOTEN  =      2731.31455340 eV

  energy without entropy =     2731.31515848  energy(sigma->0) =     2731.31475509


--------------------------------------------------------------------------------------------------------




--------------------------------------- Iteration      1(   2)  ---------------------------------------


     EDDAV:  cpu time  303.2849: real time  304.5119
       DOS:  cpu time    0.0460: real time    0.0463
    --------------------------------------------
      LOOP:  cpu time  303.3309: real time  304.5582

 eigenvalue-minimisations  : 86400
 total energy-change (2. order) :-0.2583527E+04  (-0.2305601E+04)
 number of electron     337.0000000 magnetization     160.0000000
 augmentation part      337.0000000 magnetization     160.0000000

 Free energy of the ion-electron system (eV)
  ---------------------------------------------------
  alpha Z        PSCENC =      1456.83667327
  Ewald energy   TEWEN  =    -21672.30509204
  -Hartree energ DENC   =     -7151.46155281
  -exchange      EXHF   =         0.00000000
  -V(xc)+E(xc)   XCENC  =       308.35353537
  PAW double counting   =     23377.83946347   -23998.34197029
  entropy T*S    EENTRO =        -0.00309353
  eigenvalues    EBANDS =      2058.64278697
  atomic energy  EATOM  =     25768.22672671
  Solvation  Ediel_sol  =         0.00000000
  ---------------------------------------------------
  free energy    TOTEN  =       147.78747712 eV

  energy without entropy =      147.79057065  energy(sigma->0) =      147.78850830


--------------------------------------------------------------------------------------------------------




--------------------------------------- Iteration      1(   3)  ---------------------------------------


     EDDAV:  cpu time  303.7468: real time  304.8922
       DOS:  cpu time    0.0500: real time    0.0499
    --------------------------------------------
      LOOP:  cpu time  303.7968: real time  304.9421

 eigenvalue-minimisations  : 86584
 total energy-change (2. order) :-0.4210925E+03  (-0.3476138E+03)
 number of electron     337.0000000 magnetization     160.0000000
 augmentation part      337.0000000 magnetization     160.0000000

 Free energy of the ion-electron system (eV)
  ---------------------------------------------------
  alpha Z        PSCENC =      1456.83667327
  Ewald energy   TEWEN  =    -21672.30509204
  -Hartree energ DENC   =     -7151.46155281
  -exchange      EXHF   =         0.00000000
  -V(xc)+E(xc)   XCENC  =       308.35353537
  PAW double counting   =     23377.83946347   -23998.34197029
  entropy T*S    EENTRO =         0.04211434
  eigenvalues    EBANDS =      1637.50509124
  atomic energy  EATOM  =     25768.22672671
  Solvation  Ediel_sol  =         0.00000000
  ---------------------------------------------------
  free energy    TOTEN  =      -273.30501074 eV

  energy without entropy =     -273.34712508  energy(sigma->0) =     -273.31904885


--------------------------------------------------------------------------------------------------------




--------------------------------------- Iteration      1(   4)  ---------------------------------------


     EDDAV:  cpu time  356.2818: real time  357.8453
       DOS:  cpu time    0.0530: real time    0.0532
    --------------------------------------------
      LOOP:  cpu time  356.3358: real time  357.8985

 eigenvalue-minimisations  :106328
 total energy-change (2. order) :-0.2932562E+02  (-0.2815711E+02)
 number of electron     337.0000000 magnetization     160.0000000
 augmentation part      337.0000000 magnetization     160.0000000

 Free energy of the ion-electron system (eV)
  ---------------------------------------------------
  alpha Z        PSCENC =      1456.83667327
  Ewald energy   TEWEN  =    -21672.30509204
  -Hartree energ DENC   =     -7151.46155281
  -exchange      EXHF   =         0.00000000
  -V(xc)+E(xc)   XCENC  =       308.35353537
  PAW double counting   =     23377.83946347   -23998.34197029
  entropy T*S    EENTRO =         0.04908147
  eigenvalues    EBANDS =      1608.17250653
  atomic energy  EATOM  =     25768.22672671
  Solvation  Ediel_sol  =         0.00000000
  ---------------------------------------------------
  free energy    TOTEN  =      -302.63062831 eV

  energy without entropy =     -302.67970978  energy(sigma->0) =     -302.64698880


--------------------------------------------------------------------------------------------------------




--------------------------------------- Iteration      1(   5)  ---------------------------------------


     EDDAV:  cpu time  348.2541: real time  349.7515
       DOS:  cpu time    0.0540: real time    0.0538
    CHARGE:  cpu time    5.2572: real time    5.3631
    MIXING:  cpu time    0.0110: real time    0.0730
    --------------------------------------------
      LOOP:  cpu time  353.5752: real time  355.2414

 eigenvalue-minimisations  :103408
 total energy-change (2. order) :-0.7561219E+00  (-0.7544806E+00)
 number of electron     337.0000116 magnetization     134.5591109
 augmentation part      117.9883953 magnetization     110.7715149

 Broyden mixing:
  rms(total) = 0.97797E+01    rms(broyden)= 0.97795E+01
  rms(prec ) = 0.10641E+02
  weight for this iteration     100.00

 Free energy of the ion-electron system (eV)
  ---------------------------------------------------
  alpha Z        PSCENC =      1456.83667327
  Ewald energy   TEWEN  =    -21672.30509204
  -Hartree energ DENC   =     -7151.46155281
  -exchange      EXHF   =         0.00000000
  -V(xc)+E(xc)   XCENC  =       308.35353537
  PAW double counting   =     23377.83946347   -23998.34197029
  entropy T*S    EENTRO =         0.04921525
  eigenvalues    EBANDS =      1607.41625084
  atomic energy  EATOM  =     25768.22672671
  Solvation  Ediel_sol  =         0.00000000
  ---------------------------------------------------
  free energy    TOTEN  =      -303.38675022 eV

  energy without entropy =     -303.43596547  energy(sigma->0) =     -303.40315531


--------------------------------------------------------------------------------------------------------




--------------------------------------- Iteration      1(   6)  ---------------------------------------


    POTLOK:  cpu time    0.1630: real time    0.1725
    SETDIJ:  cpu time    0.0280: real time    0.0277
     EDDAV:  cpu time  366.1103: real time  367.6147
       DOS:  cpu time    0.0530: real time    0.0537
    CHARGE:  cpu time    4.8823: real time    4.9041
    MIXING:  cpu time    0.0070: real time    0.1503
    --------------------------------------------
      LOOP:  cpu time  371.2436: real time  372.9231

 eigenvalue-minimisations  :109128
 total energy-change (2. order) :-0.9575008E+02  (-0.2613850E+02)
 number of electron     337.0000172 magnetization     125.4215360
 augmentation part      160.5123534 magnetization      99.3993230

 Broyden mixing:
  rms(total) = 0.12450E+02    rms(broyden)= 0.12449E+02
  rms(prec ) = 0.13945E+02
  weight for this iteration     100.00

 eigenvalues of (default mixing * dielectric matrix)
  average eigenvalue GAMMA=   0.4905
  0.4905

 Free energy of the ion-electron system (eV)
  ---------------------------------------------------
  alpha Z        PSCENC =      1456.83667327
  Ewald energy   TEWEN  =    -21672.30509204
  -Hartree energ DENC   =     -6164.70811326
  -exchange      EXHF   =         0.00000000
  -V(xc)+E(xc)   XCENC  =       227.32458798
  PAW double counting   =     25073.31627448   -25538.19147275
  entropy T*S    EENTRO =        -0.01450717
  eigenvalues    EBANDS =       450.37809756
  atomic energy  EATOM  =     25768.22672671
  Solvation  Ediel_sol  =         0.00000000
  ---------------------------------------------------
  free energy    TOTEN  =      -399.13682522 eV

  energy without entropy =     -399.12231805  energy(sigma->0) =     -399.13198950


--------------------------------------------------------------------------------------------------------




--------------------------------------- Iteration      1(   7)  ---------------------------------------


    POTLOK:  cpu time    0.1660: real time    0.1740
    SETDIJ:  cpu time    0.0270: real time    0.0275
     EDDAV:  cpu time  358.3565: real time  359.8859
       DOS:  cpu time    0.0520: real time    0.0516
    CHARGE:  cpu time    4.8203: real time    4.8406
    MIXING:  cpu time    0.0050: real time    0.0404
    --------------------------------------------
      LOOP:  cpu time  363.4268: real time  365.0200

 eigenvalue-minimisations  :106392
 total energy-change (2. order) : 0.9562402E+02  (-0.1786242E+02)
 number of electron     337.0000145 magnetization     113.9657818
 augmentation part      154.0864488 magnetization      92.1016556

 Broyden mixing:
  rms(total) = 0.66829E+01    rms(broyden)= 0.66827E+01
  rms(prec ) = 0.83642E+01
  weight for this iteration     100.00

 eigenvalues of (default mixing * dielectric matrix)
  average eigenvalue GAMMA=   0.5731
  0.7891  0.3571

 Free energy of the ion-electron system (eV)
  ---------------------------------------------------
  alpha Z        PSCENC =      1456.83667327
  Ewald energy   TEWEN  =    -21672.30509204
  -Hartree energ DENC   =     -6532.79967806
  -exchange      EXHF   =         0.00000000
  -V(xc)+E(xc)   XCENC  =       242.06020615
  PAW double counting   =     26498.81761186   -27090.77805475
  entropy T*S    EENTRO =         0.02864014
  eigenvalues    EBANDS =      1026.40016227
  atomic energy  EATOM  =     25768.22672671
  Solvation  Ediel_sol  =         0.00000000
  ---------------------------------------------------
  free energy    TOTEN  =      -303.51280445 eV

  energy without entropy =     -303.54144459  energy(sigma->0) =     -303.52235116


--------------------------------------------------------------------------------------------------------




--------------------------------------- Iteration      1(   8)  ---------------------------------------


    POTLOK:  cpu time    0.1660: real time    0.1734
    SETDIJ:  cpu time    0.0280: real time    0.0275
     EDDAV:  cpu time  385.3724: real time  387.0048
       DOS:  cpu time    0.0520: real time    0.0525
    CHARGE:  cpu time    4.9462: real time    4.9685
    MIXING:  cpu time    0.0040: real time    0.0083
    --------------------------------------------
      LOOP:  cpu time  390.5686: real time  392.2351

 eigenvalue-minimisations  :116512
[...]
   43       -0.015  -0.122   0.002  -0.136
   44       -0.015  -0.123   0.002  -0.136
   45       -0.016  -0.122   0.002  -0.136
   46       -0.012  -0.111   0.000  -0.124
   47       -0.015  -0.123   0.002  -0.137
   48        0.011  -0.002   2.412   2.421
--------------------------------------------------
tot         -0.221  -2.400  50.546  47.925
 
    CHARGE:  cpu time    4.8513: real time    4.8725
    FORLOC:  cpu time    0.0230: real time    0.0322
    FORNL :  cpu time  105.1550: real time  105.5307
    STRESS:  cpu time  187.1316: real time  187.7347
    FORCOR:  cpu time    0.1830: real time    0.2034
    FORHAR:  cpu time    0.0380: real time    0.0419
    MIXING:  cpu time    0.0080: real time    0.0085
    OFIELD:  cpu time    0.0010: real time    0.0046

  FORCE on cell =-STRESS in cart. coord.  units (eV):
  Direction    XX          YY          ZZ          XY          YZ          ZX
  --------------------------------------------------------------------------------------
  Alpha Z  1456.83667  1456.83667  1456.83667
  Ewald   -7454.31960 -6884.77597 -7333.30835     0.00000     0.00000     0.12449
  Hartree  2162.18771  2441.04436  2072.75287    -0.00000    -0.00000    -0.75387
  E(xc)   -1649.84704 -1652.05560 -1650.21400     0.00000     0.00000     0.06479
  Local    -476.45029 -1285.46268  -482.34426    -0.00000     0.00000     1.04859
  n-local  -273.48305  -253.59271  -258.03335    -0.17228    -0.84622     0.30695
  augment  3346.74259  3328.71963  3321.10570    -0.00000    -0.00000    -0.48368
  Kinetic  2864.83010  2831.34923  2844.93890    -0.21507    -0.06300    -0.49118
  Fock        0.00000     0.00000     0.00000     0.00000     0.00000     0.00000
  -------------------------------------------------------------------------------------
  Total     -23.50291   -17.93708   -28.26581     0.00000     0.00000    -0.18391
  in kB     -57.11885   -43.59228   -68.69408     0.00000     0.00000    -0.44697
  external pressure =      -56.47 kB  Pullay stress =        0.00 kB


 VOLUME and BASIS-vectors are now :
 -----------------------------------------------------------------------------
  energy-cutoff  :      450.00
  volume of cell :      659.25
      direct lattice vectors                 reciprocal lattice vectors
    12.216428129  0.000000000  0.000000000     0.081856987  0.000000000  0.000000000
     0.000000000  7.547159857  0.000000000     0.000000000  0.132500175  0.000000000
     0.000000000  0.000000000  7.150311486     0.000000000  0.000000000  0.139854047

  length of vectors
    12.216428129  7.547159857  7.150311486     0.081856987  0.132500175  0.139854047


 FORCES acting on ions
    electron-ion (+dipol)            ewald-force                    non-local-force                 convergence-correction
 -----------------------------------------------------------------------------------------------
   0.102E+02 0.101E+01 0.345E+02   -.102E+02 -.982E+00 -.345E+02   -.584E+00 -.141E-01 0.217E+00   -.501E-01 -.176E-02 -.752E-02
   0.102E+02 -.101E+01 0.345E+02   -.102E+02 0.982E+00 -.345E+02   -.584E+00 0.141E-01 0.217E+00   -.501E-01 0.176E-02 -.752E-02
   0.686E+01 0.474E+01 -.298E+02   -.678E+01 -.483E+01 0.297E+02   -.621E+00 0.647E-01 -.136E+00   -.369E-02 -.272E-02 -.203E-01
   0.686E+01 -.474E+01 -.298E+02   -.678E+01 0.483E+01 0.297E+02   -.621E+00 -.647E-01 -.136E+00   -.369E-02 0.272E-02 -.203E-01
   0.161E+01 0.121E+01 0.346E+02   -.151E+01 -.124E+01 -.345E+02   -.669E+00 0.276E-01 0.212E+00   0.395E-01 0.754E-04 -.217E-01
   0.161E+01 -.121E+01 0.346E+02   -.151E+01 0.124E+01 -.345E+02   -.669E+00 -.276E-01 0.212E+00   0.395E-01 -.754E-04 -.217E-01
   0.568E+01 0.273E+00 -.344E+02   -.562E+01 -.269E+00 0.343E+02   -.624E+00 -.644E-02 -.206E+00   0.134E-01 -.190E-02 -.266E-01
   0.568E+01 -.273E+00 -.344E+02   -.562E+01 0.269E+00 0.343E+02   -.624E+00 0.644E-02 -.206E+00   0.134E-01 0.190E-02 -.266E-01
   -.605E+01 -.847E-14 0.345E+02   0.597E+01 0.722E-14 -.345E+02   0.616E+00 0.000E+00 0.200E+00   0.338E-02 0.719E-13 0.301E-01
   -.158E+01 -.941E-15 -.352E+02   0.146E+01 -.579E-13 0.352E+02   0.701E+00 0.000E+00 -.248E+00   -.516E-01 0.884E-13 0.927E-02
   -.600E+01 0.121E-12 0.345E+02   0.597E+01 0.144E-13 -.345E+02   0.641E+00 0.000E+00 0.214E+00   0.492E-02 0.846E-13 0.162E-01
   -.105E+02 0.876E-13 -.352E+02   0.105E+02 0.782E-14 0.352E+02   0.579E+00 0.000E+00 -.208E+00   0.446E-01 0.972E-13 0.160E-01
   -.605E+01 0.346E-12 0.345E+02   0.597E+01 0.217E-13 -.345E+02   0.632E+00 0.000E+00 0.206E+00   0.370E-03 0.233E-13 0.236E-01
   0.363E+01 0.129E-11 -.368E+02   -.362E+01 -.443E-13 0.367E+02   0.704E+00 0.000E+00 -.254E+00   -.505E-01 0.482E-13 0.607E-02
   -.157E+02 0.359E-11 -.368E+02   0.156E+02 0.710E-14 0.367E+02   0.577E+00 0.000E+00 -.224E+00   0.484E-01 0.386E-13 0.149E-01
   0.763E+02 0.145E+01 -.385E+02   -.759E+02 -.143E+01 0.391E+02   -.497E-01 -.203E-01 -.238E+00   -.441E-01 -.123E-02 0.451E-02
   0.763E+02 -.145E+01 -.385E+02   -.759E+02 0.143E+01 0.391E+02   -.497E-01 0.203E-01 -.238E+00   -.441E-01 0.123E-02 0.451E-02
   0.771E+02 0.929E+01 0.304E+02   -.767E+02 -.929E+01 -.310E+02   -.864E-01 0.497E-01 0.212E+00   -.257E-01 -.982E-02 0.186E-01
   0.771E+02 -.929E+01 0.304E+02   -.767E+02 0.929E+01 -.310E+02   -.864E-01 -.497E-01 0.212E+00   -.257E-01 0.982E-02 0.186E-01
   0.571E+02 0.828E+01 -.352E+02   -.567E+02 -.833E+01 0.358E+02   -.225E+00 0.627E-01 -.215E+00   0.686E-01 -.536E-02 0.141E-01
   0.571E+02 -.828E+01 -.352E+02   -.567E+02 0.833E+01 0.358E+02   -.225E+00 -.627E-01 -.215E+00   0.686E-01 0.536E-02 0.141E-01
   0.673E+02 0.568E+00 0.387E+02   -.670E+02 -.552E+00 -.394E+02   -.116E+00 -.750E-02 0.235E+00   0.380E-01 -.894E-02 0.912E-02
   0.673E+02 -.568E+00 0.387E+02   -.670E+02 0.552E+00 -.394E+02   -.116E+00 0.750E-02 0.235E+00   0.380E-01 0.894E-02 0.912E-02
   -.682E+02 0.859E-14 -.394E+02   0.679E+02 0.144E-13 0.400E+02   0.142E+00 0.000E+00 -.228E+00   -.380E-01 0.194E-12 -.125E-01
   -.638E+02 0.134E-13 0.410E+02   0.634E+02 0.914E-15 -.417E+02   0.245E+00 0.000E+00 0.256E+00   -.717E-01 0.799E-13 -.223E-02
   -.727E+02 0.116E-12 -.412E+02   0.723E+02 -.297E-15 0.419E+02   0.952E-01 0.000E+00 -.250E+00   0.303E-01 0.195E-12 -.101E-01
   -.750E+02 -.520E-13 0.399E+02   0.746E+02 -.113E-13 -.405E+02   0.314E-01 0.000E+00 0.251E+00   0.477E-01 0.898E-13 0.587E-02
   -.677E+02 0.146E-11 -.395E+02   0.674E+02 0.292E-13 0.402E+02   0.133E+00 0.000E+00 -.216E+00   -.385E-01 0.143E-12 -.665E-02
   -.541E+02 0.549E-11 0.475E+02   0.537E+02 0.128E-13 -.482E+02   0.208E+00 0.000E+00 0.274E+00   -.801E-01 0.113E-13 -.820E-02
   -.764E+02 0.995E-11 -.507E+02   0.760E+02 0.245E-15 0.512E+02   0.344E-01 0.000E+00 -.152E+00   0.320E-01 0.932E-13 0.402E-02
   -.778E+02 0.249E-11 0.408E+02   0.774E+02 0.299E-13 -.415E+02   0.124E+00 0.000E+00 0.205E+00   0.460E-01 0.103E-13 0.148E-02
   -.307E+02 0.326E+00 0.141E+02   0.310E+02 -.318E+00 -.138E+02   -.743E+00 -.201E-02 -.635E+00   -.239E-01 -.505E-02 0.101E-01
   -.307E+02 -.326E+00 0.141E+02   0.310E+02 0.318E+00 -.138E+02   -.743E+00 0.201E-02 -.635E+00   -.239E-01 0.505E-02 0.101E-01
   -.262E+02 0.568E+01 -.130E+02   0.264E+02 -.567E+01 0.128E+02   -.556E+00 0.200E+00 0.645E+00   -.317E-01 -.408E-02 0.230E-02
   -.262E+02 -.568E+01 -.130E+02   0.264E+02 0.567E+01 0.128E+02   -.556E+00 -.200E+00 0.645E+00   -.317E-01 0.408E-02 0.230E-02
   -.367E+02 0.413E+01 0.112E+02   0.370E+02 -.415E+01 -.109E+02   -.853E+00 0.958E-01 -.709E+00   0.236E-01 -.538E-02 0.112E-01
   -.367E+02 -.413E+01 0.112E+02   0.370E+02 0.415E+01 -.109E+02   -.853E+00 -.958E-01 -.709E+00   0.236E-01 0.538E-02 0.112E-01
   -.343E+02 0.431E+00 -.143E+02   0.347E+02 -.420E+00 0.140E+02   -.766E+00 -.529E-03 0.632E+00   0.139E-01 -.209E-03 0.148E-01
   -.343E+02 -.431E+00 -.143E+02   0.347E+02 0.420E+00 0.140E+02   -.766E+00 0.529E-03 0.632E+00   0.139E-01 0.209E-03 0.148E-01
   0.336E+02 -.904E-13 0.145E+02   -.339E+02 -.237E-13 -.142E+02   0.765E+00 0.000E+00 -.625E+00   -.143E-01 0.461E-14 -.888E-02
   0.341E+02 -.100E-12 -.147E+02   -.344E+02 0.482E-13 0.144E+02   0.760E+00 0.000E+00 0.621E+00   -.154E-01 0.530E-14 -.706E-02
   0.305E+02 -.306E-13 0.153E+02   -.308E+02 0.257E-14 -.150E+02   0.749E+00 0.000E+00 -.628E+00   0.178E-01 0.660E-14 -.829E-02
   0.310E+02 0.163E-12 -.144E+02   -.313E+02 0.162E-13 0.141E+02   0.744E+00 0.000E+00 0.629E+00   0.274E-01 0.572E-14 -.195E-01
   0.341E+02 0.212E-13 0.147E+02   -.344E+02 -.242E-13 -.143E+02   0.765E+00 0.000E+00 -.630E+00   -.114E-01 -.176E-13 -.690E-02
   0.355E+02 0.831E-12 -.156E+02   -.358E+02 0.466E-13 0.153E+02   0.760E+00 0.000E+00 0.647E+00   -.160E-01 -.219E-13 -.300E-02
   0.272E+02 -.131E-11 0.200E+02   -.273E+02 0.553E-15 -.196E+02   0.570E+00 0.000E+00 -.424E+00   0.233E-01 -.258E-13 -.129E-01
   0.306E+02 0.973E-12 -.145E+02   -.309E+02 0.151E-13 0.142E+02   0.754E+00 0.000E+00 0.638E+00   0.245E-01 -.218E-13 -.146E-01
   -.696E+01 0.646E-11 0.395E+02   0.683E+01 -.856E-14 -.394E+02   0.544E+00 0.000E+00 0.553E-01   0.196E-02 0.271E-13 0.146E-01
 -----------------------------------------------------------------------------------------------
   -.862E-01 0.673E-10 -.173E+00   -.622E-13 -.600E-13 -.853E-13   0.853E-01 0.000E+00 0.134E+00   0.114E-02 0.272E-11 0.388E-01
 
 
 POSITION                                       TOTAL-FORCE (eV/Angst)
 -----------------------------------------------------------------------------------
      2.95515      1.88679      1.27490        -0.563983      0.010157      0.244981
      2.95515      5.66037      1.27490        -0.563983     -0.010157      0.244981
      6.00926      1.88679      2.30026        -0.543753     -0.023915     -0.248324
      6.00926      5.66037      2.30026        -0.543753      0.023915     -0.248324
      9.06337      1.88679      1.27490        -0.532001     -0.000616      0.255364
      9.06337      5.66037      1.27490        -0.532001      0.000616      0.255364
     12.11748      1.88679      2.30026        -0.552206     -0.004081     -0.255332
     12.11748      5.66037      2.30026        -0.552206      0.004081     -0.255332
      0.09895      0.00000      4.85006         0.545937     -0.000000      0.251695
      3.15306      0.00000      5.87541         0.525135     -0.000000     -0.239612
      6.20717      0.00000      4.85006         0.616700     -0.000000      0.252947
      9.26127      0.00000      5.87541         0.568920     -0.000000     -0.255359
      0.09895      3.77358      4.85006         0.553902     -0.000000      0.259353
      3.15306      3.77358      5.87541         0.666994     -0.000000     -0.293448
      9.26127      3.77358      5.87541         0.517971     -0.000000     -0.280879
      2.15864      1.88679      3.95627         0.280523     -0.001077      0.409440
      2.15864      5.66037      3.95627         0.280523      0.001077      0.409440
      5.21275      1.88679      6.76920         0.262626      0.032325     -0.419111
      5.21275      5.66037      6.76920         0.262626     -0.032325     -0.419111
      8.26686      1.88679      3.95627         0.210501      0.005715      0.383926
      8.26686      5.66037      3.95627         0.210501     -0.005715      0.383926
     11.32096      1.88679      6.76920         0.252326     -0.000137     -0.405101
     11.32096      5.66037      6.76920         0.252326      0.000137     -0.405101
      0.89546      0.00000      0.38111        -0.244002     -0.000000      0.413929
      3.94957      0.00000      3.19404        -0.221958     -0.000000     -0.412380
      7.00368      0.00000      0.38111        -0.234254     -0.000000      0.404567
     10.05779      0.00000      3.19404        -0.271544     -0.000000     -0.402616
      0.89546      3.77358      0.38111        -0.248668     -0.000000      0.419095
      3.94957      3.77358      3.19404        -0.205386     -0.000000     -0.389062
      7.00368      3.77358      0.38111        -0.335894     -0.000000      0.362324
     10.05779      3.77358      3.19404        -0.266084     -0.000000     -0.419561
      1.53011      1.88679      6.28012        -0.451551      0.001091     -0.321554
      1.53011      5.66037      6.28012        -0.451551     -0.001091     -0.321554
      4.58421      1.88679      4.44535        -0.357009      0.203158      0.389795
      4.58421      5.66037      4.44535        -0.357009     -0.203158      0.389795
      7.63832      1.88679      6.28012        -0.525774      0.068937     -0.383827
      7.63832      5.66037      6.28012        -0.525774     -0.068937     -0.383827
     10.69243      1.88679      4.44535        -0.446048      0.009707      0.334889
     10.69243      5.66037      4.44535        -0.446048     -0.009707      0.334889
      1.52400      0.00000      2.70496         0.424889     -0.000000     -0.322037
      4.57811      0.00000      0.87019         0.472290     -0.000000      0.279874
      7.63221      0.00000      2.70496         0.442087     -0.000000     -0.317945
     10.68632      0.00000      0.87019         0.458843     -0.000000      0.320351
      1.52400      3.77358      2.70496         0.442862     -0.000000     -0.316841
      4.57811      3.77358      0.87019         0.429583     -0.000000      0.321520
      7.63221      3.77358      2.70496         0.435194     -0.000000     -0.037217
     10.68632      3.77358      0.87019         0.447634     -0.000000      0.318746
      6.20717      3.77358      4.85006         0.411547     -0.000000      0.112265
 -----------------------------------------------------------------------------------
    total drift:                                0.000280      0.000000      0.000356


--------------------------------------------------------------------------------------------------------



  FREE ENERGIE OF THE ION-ELECTRON SYSTEM (eV)
  ---------------------------------------------------
  free  energy   TOTEN  =      -312.69724763 eV

  energy  without entropy=     -312.78449102  energy(sigma->0) =     -312.72632876
 


--------------------------------------------------------------------------------------------------------


    POTLOK:  cpu time    0.1970: real time    0.2234


--------------------------------------------------------------------------------------------------------


     LOOP+:  cpu time13163.8148: real time13219.7433
    4ORBIT:  cpu time    0.0000: real time    0.0000
 


 total charge     
 
# of ion       s       p       d       tot
------------------------------------------
    1        0.253   0.276   5.040   5.569
    2        0.253   0.276   5.040   5.569
    3        0.253   0.276   5.037   5.567
    4        0.253   0.276   5.037   5.567
    5        0.253   0.276   5.040   5.569
    6        0.253   0.276   5.040   5.569
    7        0.253   0.276   5.040   5.569
    8        0.253   0.276   5.040   5.569
    9        0.253   0.276   5.040   5.569
   10        0.253   0.276   5.040   5.568
   11        0.253   0.276   5.041   5.571
   12        0.253   0.276   5.039   5.568
   13        0.253   0.276   5.040   5.569
   14        0.252   0.275   5.040   5.567
   15        0.252   0.275   5.040   5.568
   16        0.437   0.497   8.419   9.353
   17        0.437   0.497   8.419   9.353
   18        0.436   0.494   8.419   9.349
   19        0.436   0.494   8.419   9.349
   20        0.436   0.494   8.419   9.349
   21        0.436   0.494   8.419   9.349
   22        0.437   0.497   8.419   9.352
   23        0.437   0.497   8.419   9.352
   24        0.437   0.497   8.418   9.351
   25        0.437   0.495   8.421   9.353
   26        0.437   0.497   8.420   9.353
   27        0.437   0.496   8.421   9.354
   28        0.437   0.497   8.419   9.352
   29        0.436   0.495   8.418   9.349
   30        0.436   0.493   8.418   9.348
   31        0.437   0.497   8.419   9.353
   32        1.103   1.310   0.119   2.531
   33        1.103   1.310   0.119   2.531
   34        1.102   1.299   0.119   2.520
   35        1.102   1.299   0.119   2.520
   36        1.103   1.303   0.119   2.525
   37        1.103   1.303   0.119   2.525
   38        1.103   1.310   0.119   2.532
   39        1.103   1.310   0.119   2.532
   40        1.102   1.310   0.119   2.532
   41        1.103   1.310   0.119   2.532
   42        1.102   1.310   0.119   2.531
   43        1.103   1.310   0.119   2.531
   44        1.103   1.310   0.119   2.532
   45        1.103   1.311   0.118   2.532
   46        1.103   1.299   0.119   2.522
   47        1.102   1.310   0.119   2.531
   48        0.321   0.357   6.225   6.903
--------------------------------------------------
tot         28.739  33.340 218.429 280.508
 


 magnetization (x)
 
# of ion       s       p       d       tot
------------------------------------------
    1        0.020   0.011   3.113   3.144
    2        0.020   0.011   3.113   3.144
    3        0.021   0.012   3.131   3.164
    4        0.021   0.012   3.131   3.164
    5        0.020   0.011   3.112   3.143
    6        0.020   0.011   3.112   3.143
    7        0.020   0.010   3.105   3.135
    8        0.020   0.010   3.105   3.135
    9        0.020   0.010   3.104   3.134
   10        0.020   0.011   3.115   3.146
   11        0.019   0.012   3.103   3.134
   12        0.020   0.011   3.114   3.145
   13        0.020   0.010   3.111   3.141
   14        0.020   0.011   3.101   3.132
   15        0.020   0.011   3.095   3.126
   16       -0.019  -0.042   0.092   0.031
   17       -0.019  -0.042   0.092   0.031
   18       -0.018  -0.040   0.086   0.028
   19       -0.018  -0.040   0.086   0.028
   20       -0.018  -0.040   0.092   0.034
   21       -0.018  -0.040   0.092   0.034
   22       -0.019  -0.042   0.088   0.026
   23       -0.019  -0.042   0.088   0.026
   24       -0.019  -0.042   0.088   0.026
   25       -0.018  -0.040   0.101   0.043
   26       -0.019  -0.042   0.091   0.030
   27       -0.019  -0.041   0.090   0.031
   28       -0.019  -0.042   0.089   0.028
   29       -0.018  -0.041   0.082   0.023
   30       -0.018  -0.039   0.094   0.037
   31       -0.020  -0.042   0.091   0.029
   32       -0.015  -0.123   0.002  -0.136
   33       -0.015  -0.123   0.002  -0.136
   34       -0.012  -0.110   0.000  -0.123
   35       -0.012  -0.110   0.000  -0.123
   36       -0.014  -0.114   0.001  -0.127
   37       -0.014  -0.114   0.001  -0.127
   38       -0.015  -0.123   0.002  -0.136
   39       -0.015  -0.123   0.002  -0.136
   40       -0.015  -0.123   0.002  -0.136
   41       -0.015  -0.122   0.002  -0.134
   42       -0.015  -0.121   0.002  -0.134
   43       -0.015  -0.122   0.002  -0.136
   44       -0.015  -0.123   0.002  -0.136
   45       -0.016  -0.122   0.002  -0.136
   46       -0.012  -0.111   0.000  -0.124
   47       -0.015  -0.123   0.002  -0.137
   48        0.011  -0.002   2.412   2.421
--------------------------------------------------
tot         -0.221  -2.400  50.546  47.925
 

 total amount of memory used by VASP MPI-rank0   572406. kBytes
=======================================================================

   base      :      30000. kBytes
   nonl-proj :      85352. kBytes
   fftplans  :       4123. kBytes
   grid      :      11698. kBytes
   one-center:        248. kBytes
   wavefun   :     440985. kBytes
 
  
  
 General timing and accounting informations for this job:
 ========================================================
  
                  Total CPU time used (sec):    13391.004
                            User time (sec):    13271.499
                          System time (sec):      119.505
                         Elapsed time (sec):    13454.701
  
                   Maximum memory used (kb):      808524.
                   Average memory used (kb):           0.
  
                          Minor page faults:        64898
                          Major page faults:          389
                 Voluntary context switches:         8176
