 vasp.6.1.1 19Jun20 (build Nov 30 2020 11:51:22) complex                        
  
 executed on             LinuxIFC date 2020.12.09  22:04:40
 running on   24 total cores
 distrk:  each k-point on   24 cores,    1 groups
 distr:  one band on NCORE=   6 cores,    4 groups


--------------------------------------------------------------------------------------------------------


 INCAR:
 POTCAR:    PAW_PBE Ni 02Aug2007                  
 POTCAR:    PAW_PBE Ge 05Jan2001                  
 POTCAR:    PAW_PBE Mn 06Sep2000                  
 POTCAR:    PAW_PBE Fe 06Sep2000                  
 POTCAR:    PAW_PBE Ni 02Aug2007                  
   SHA256 =  0534bc51ca8003dfef23f56753fef9fdd3e22eac8d719fccacb59f3e6b7a69c7 Ni/POTCAR             
   COPYR  = (c) Copyright 02Aug2007 Georg Kresse                                                    
   COPYR  = This file is part of the software VASP. Any use, copying, and all other rights are regul
   COPYR  = If you do not have a valid VASP license, you may not use, copy or distribute this file. 
   VRHFIN =Ni:                                                                                      
   LEXCH  = PE                                                                                      
   EATOM  =  1077.6739 eV,   79.2068 Ry                                                             
                                                                                                    
   TITEL  = PAW_PBE Ni 02Aug2007                                                                    
   LULTRA =        F    use ultrasoft PP ?                                                          
   IUNSCR =        1    unscreen: 0-lin 1-nonlin 2-no                                               
   RPACOR =    2.000    partial core radius                                                         
   POMASS =   58.690; ZVAL   =   10.000    mass and valenz                                          
   RCORE  =    2.300    outmost cutoff radius                                                       
   RWIGS  =    2.430; RWIGS  =    1.286    wigner-seitz radius (au A)                               
   ENMAX  =  269.532; ENMIN  =  202.149 eV                                                          
   RCLOC  =    1.201    cutoff for local pot                                                        
   LCOR   =        T    correct aug charges                                                         
   LPAW   =        T    paw PP                                                                      
   EAUG   =  544.565                                                                                
   DEXC   =    0.000                                                                                
   RMAX   =    2.357    core radius for proj-oper                                                   
   RAUG   =    1.300    factor for augmentation sphere                                              
   RDEP   =    2.390    radius for radial grids                                                     
   RDEPT  =    1.838    core radius for aug-charge                                                  
                                                                                                    
   Atomic configuration                                                                             
    9 entries                                                                                       
     n  l   j            E        occ.                                                              
     1  0  0.50     -8206.4253   2.0000                                                             
     2  0  0.50      -976.1748   2.0000                                                             
     2  1  1.50      -839.0571   6.0000                                                             
     3  0  0.50      -105.9991   2.0000                                                             
     3  1  1.50       -66.4603   6.0000                                                             
     3  2  2.50        -4.6458   9.0000                                                             
     4  0  0.50        -4.4926   1.0000                                                             
     4  1  1.50        -4.0817   0.0000                                                             
     4  3  2.50        -1.3606   0.0000                                                             
   Description                                                                                      
     l       E           TYP  RCUT    TYP  RCUT                                                     
     2     -4.6457903     23  2.300                                                                 
     2     -6.0063729     23  2.300                                                                 
     0     -4.4925590     23  2.300                                                                 
     0      5.0102601     23  2.300                                                                 
     1     -2.7211652     23  2.300                                                                 
     1     16.5183231     23  2.300                                                                 
  local pseudopotential read in
  partial core-charges read in
  partial kinetic energy density read in
  atomic valenz-charges read in
  non local Contribution for L=           2  read in
    real space projection operators read in
  non local Contribution for L=           2  read in
    real space projection operators read in
  non local Contribution for L=           0  read in
    real space projection operators read in
  non local Contribution for L=           0  read in
    real space projection operators read in
  non local Contribution for L=           1  read in
    real space projection operators read in
  non local Contribution for L=           1  read in
    real space projection operators read in
    PAW grid and wavefunctions read in
 
   number of l-projection  operators is LMAX  =           6
   number of lm-projection operators is LMMAX =          18
 
 POTCAR:    PAW_PBE Ge 05Jan2001                  
   SHA256 =  7ff11deedcda39f1950abeda971a84a1f98a719a97bc9679a0df455c008734f8 Ge/POTCAR             
   COPYR  = (c) Copyright 05Jan2001 Georg Kresse                                                    
   COPYR  = This file is part of the software VASP. Any use, copying, and all other rights are regul
   COPYR  = If you do not have a valid VASP license, you may not use, copy or distribute this file. 
   VRHFIN =Ge: s2p2                                                                                 
   LEXCH  = PE                                                                                      
   EATOM  =   104.9960 eV,    7.7170 Ry                                                             
                                                                                                    
   TITEL  = PAW_PBE Ge 05Jan2001                                                                    
   LULTRA =        F    use ultrasoft PP ?                                                          
   IUNSCR =        1    unscreen: 0-lin 1-nonlin 2-no                                               
   RPACOR =    2.170    partial core radius                                                         
   POMASS =   72.610; ZVAL   =    4.000    mass and valenz                                          
   RCORE  =    2.300    outmost cutoff radius                                                       
   RWIGS  =    2.300; RWIGS  =    1.217    wigner-seitz radius (au A)                               
   ENMAX  =  173.807; ENMIN  =  130.355 eV                                                          
   ICORE  =        3    local potential                                                             
   LCOR   =        T    correct aug charges                                                         
   LPAW   =        T    paw PP                                                                      
   EAUG   =  385.843                                                                                
   DEXC   =    0.000                                                                                
   RMAX   =    2.342    core radius for proj-oper                                                   
   RAUG   =    1.300    factor for augmentation sphere                                              
   RDEP   =    2.318    radius for radial grids                                                     
   RDEPT  =    2.103    core radius for aug-charge                                                  
                                                                                                    
   Atomic configuration                                                                             
   10 entries                                                                                       
     n  l   j            E        occ.                                                              
     1  0  0.50    -10959.8463   2.0000                                                             
     2  0  0.50     -1371.6056   2.0000                                                             
     2  1  1.50     -1198.4791   6.0000                                                             
     3  0  0.50      -168.4733   2.0000                                                             
     3  1  1.50      -115.6019   6.0000                                                             
     3  2  2.50       -29.3106  10.0000                                                             
     4  0  0.50       -11.7309   2.0000                                                             
     4  1  0.50        -3.8952   2.0000                                                             
     4  2  1.50        -4.0817   0.0000                                                             
     4  3  2.50        -4.0817   0.0000                                                             
   Description                                                                                      
     l       E           TYP  RCUT    TYP  RCUT                                                     
     0    -11.7309493     23  2.300                                                                 
     0     -7.4578696     23  2.300                                                                 
     1     -3.8952261     23  2.300                                                                 
     1      6.1178114     23  2.300                                                                 
     2     -4.0817478     23  2.300                                                                 
     3     -1.3605826      7  2.300                                                                 
  local pseudopotential read in
  partial core-charges read in
  partial kinetic energy density read in
  atomic valenz-charges read in
  non local Contribution for L=           0  read in
    real space projection operators read in
  non local Contribution for L=           0  read in
    real space projection operators read in
  non local Contribution for L=           1  read in
    real space projection operators read in
  non local Contribution for L=           1  read in
    real space projection operators read in
  non local Contribution for L=           2  read in
    real space projection operators read in
    PAW grid and wavefunctions read in
 
   number of l-projection  operators is LMAX  =           5
   number of lm-projection operators is LMMAX =          13
 
 POTCAR:    PAW_PBE Mn 06Sep2000                  
   SHA256 =  791c87526310ff945dc83749a51ee60ee299d345ff72743aeb14609b9ed68bfc Mn/POTCAR             
   COPYR  = (c) Copyright 06Sep2000 Georg Kresse                                                    
   COPYR  = This file is part of the software VASP. Any use, copying, and all other rights are regul
   COPYR  = If you do not have a valid VASP license, you may not use, copy or distribute this file. 
   VRHFIN =Mn: d6 s1                                                                                
   LEXCH  = PE                                                                                      
   EATOM  =   416.7541 eV,   30.6306 Ry                                                             
                                                                                                    
   TITEL  = PAW_PBE Mn 06Sep2000                                                                    
   LULTRA =        F    use ultrasoft PP ?                                                          
   IUNSCR =        1    unscreen: 0-lin 1-nonlin 2-no                                               
   RPACOR =    2.000    partial core radius                                                         
   POMASS =   54.938; ZVAL   =    7.000    mass and valenz                                          
   RCORE  =    2.300    outmost cutoff radius                                                       
   RWIGS  =    2.500; RWIGS  =    1.323    wigner-seitz radius (au A)                               
   ENMAX  =  269.864; ENMIN  =  202.398 eV                                                          
   RCLOC  =    1.725    cutoff for local pot                                                        
   LCOR   =        T    correct aug charges                                                         
   LPAW   =        T    paw PP                                                                      
   EAUG   =  500.711                                                                                
   DEXC   =    0.000                                                                                
   RMAX   =    2.343    core radius for proj-oper                                                   
   RAUG   =    1.300    factor for augmentation sphere                                              
   RDEP   =    2.338    radius for radial grids                                                     
   RDEPT  =    1.911    core radius for aug-charge                                                  
                                                                                                    
   Atomic configuration                                                                             
    9 entries                                                                                       
     n  l   j            E        occ.                                                              
     1  0  0.50     -6424.8288   2.0000                                                             
     2  0  0.50      -739.1154   2.0000                                                             
     2  1  1.50      -625.3949   6.0000                                                             
     3  0  0.50       -81.6100   2.0000                                                             
     3  1  1.50       -50.4667   6.0000                                                             
     3  2  2.50        -3.3745   6.0000                                                             
     4  0  0.50        -4.1331   1.0000                                                             
     4  1  0.50        -4.0817   0.0000                                                             
     4  3  2.50        -1.3606   0.0000                                                             
   Description                                                                                      
     l       E           TYP  RCUT    TYP  RCUT                                                     
     2     -3.3744664     23  2.300                                                                 
     2     -4.7350490     23  2.300                                                                 
     0     -4.1331408     23  2.300                                                                 
     0      7.6656614     23  2.300                                                                 
     1     -2.7211652     23  2.300                                                                 
     1     20.4087390     23  2.300                                                                 
  local pseudopotential read in
  partial core-charges read in
  partial kinetic energy density read in
  atomic valenz-charges read in
  non local Contribution for L=           2  read in
    real space projection operators read in
  non local Contribution for L=           2  read in
    real space projection operators read in
  non local Contribution for L=           0  read in
    real space projection operators read in
  non local Contribution for L=           0  read in
    real space projection operators read in
  non local Contribution for L=           1  read in
    real space projection operators read in
  non local Contribution for L=           1  read in
    real space projection operators read in
    PAW grid and wavefunctions read in
 
   number of l-projection  operators is LMAX  =           6
   number of lm-projection operators is LMMAX =          18
 
 POTCAR:    PAW_PBE Fe 06Sep2000                  
   SHA256 =  cd5a22d9368cc8b5cc476bea79732366149640da08ac9009b0e1b7fc627eea28 Fe/POTCAR             
   COPYR  = (c) Copyright 06Sep2000 Georg Kresse                                                    
   COPYR  = This file is part of the software VASP. Any use, copying, and all other rights are regul
   COPYR  = If you do not have a valid VASP license, you may not use, copy or distribute this file. 
   VRHFIN =Fe:  d7 s1                                                                               
   LEXCH  = PE                                                                                      
   EATOM  =   594.3153 eV,   43.6809 Ry                                                             
                                                                                                    
   TITEL  = PAW_PBE Fe 06Sep2000                                                                    
   LULTRA =        F    use ultrasoft PP ?                                                          
   IUNSCR =        1    unscreen: 0-lin 1-nonlin 2-no                                               
   RPACOR =    2.000    partial core radius                                                         
   POMASS =   55.847; ZVAL   =    8.000    mass and valenz                                          
   RCORE  =    2.300    outmost cutoff radius                                                       
   RWIGS  =    2.460; RWIGS  =    1.302    wigner-seitz radius (au A)                               
   ENMAX  =  267.882; ENMIN  =  200.911 eV                                                          
   RCLOC  =    1.701    cutoff for local pot                                                        
   LCOR   =        T    correct aug charges                                                         
   LPAW   =        T    paw PP                                                                      
   EAUG   =  511.368                                                                                
   DEXC   =    0.000                                                                                
   RMAX   =    2.356    core radius for proj-oper                                                   
   RAUG   =    1.300    factor for augmentation sphere                                              
   RDEP   =    2.442    radius for radial grids                                                     
   RDEPT  =    1.890    core radius for aug-charge                                                  
                                                                                                    
   Atomic configuration                                                                             
    9 entries                                                                                       
     n  l   j            E        occ.                                                              
     1  0  0.50     -6993.8440   2.0000                                                             
     2  0  0.50      -814.6047   2.0000                                                             
     2  1  1.50      -693.3689   6.0000                                                             
     3  0  0.50       -89.4732   2.0000                                                             
     3  1  1.50       -55.6373   6.0000                                                             
     3  2  2.50        -3.8151   7.0000                                                             
     4  0  0.50        -4.2551   1.0000                                                             
     4  1  1.50        -3.4015   0.0000                                                             
     4  3  2.50        -1.3606   0.0000                                                             
   Description                                                                                      
     l       E           TYP  RCUT    TYP  RCUT                                                     
     2     -3.8151135     23  2.300                                                                 
     2     -5.1756961     23  2.300                                                                 
     0     -4.2550963     23  2.300                                                                 
     0      7.2035603     23  2.300                                                                 
     1     -2.7211652     23  2.300                                                                 
     1     18.4316424     23  2.300                                                                 
  local pseudopotential read in
  partial core-charges read in
  partial kinetic energy density read in
  atomic valenz-charges read in
  non local Contribution for L=           2  read in
    real space projection operators read in
  non local Contribution for L=           2  read in
    real space projection operators read in
  non local Contribution for L=           0  read in
    real space projection operators read in
  non local Contribution for L=           0  read in
    real space projection operators read in
  non local Contribution for L=           1  read in
    real space projection operators read in
  non local Contribution for L=           1  read in
    real space projection operators read in
    PAW grid and wavefunctions read in
 
   number of l-projection  operators is LMAX  =           6
   number of lm-projection operators is LMMAX =          18
 
 -----------------------------------------------------------------------------
|                                                                             |
|               ----> ADVICE to this user running VASP <----                  |
|                                                                             |
|     You have a (more or less) 'large supercell' and for larger cells it     |
|     might be more efficient to use real-space projection operators.         |
|     Therefore, try LREAL= Auto in the INCAR file.                           |
|     Mind: For very accurate calculation, you might also keep the            |
|     reciprocal projection scheme (i.e. LREAL=.FALSE.).                      |
|                                                                             |
 -----------------------------------------------------------------------------

  PAW_PBE Ni 02Aug2007                  :
 energy of atom  1       EATOM=-1077.6739
 kinetic energy error for atom=    0.0038 (will be added to EATOM!!)
  PAW_PBE Ge 05Jan2001                  :
 energy of atom  2       EATOM= -104.9960
 kinetic energy error for atom=    0.0003 (will be added to EATOM!!)
  PAW_PBE Mn 06Sep2000                  :
 energy of atom  3       EATOM= -416.7541
 kinetic energy error for atom=    0.0033 (will be added to EATOM!!)
  PAW_PBE Fe 06Sep2000                  :
 energy of atom  4       EATOM= -594.3153
 kinetic energy error for atom=    0.0034 (will be added to EATOM!!)
 
 
 POSCAR: MnFeNiGe_hex
  positions in direct lattice
  No initial velocities read in
 exchange correlation table for  LEXCH =        8
   RHO(1)=    0.500       N(1)  =     2000
   RHO(2)=  100.500       N(2)  =     4000
 


--------------------------------------------------------------------------------------------------------


 ion  position               nearest neighbor table
   1  0.667  0.833  0.375-  27 2.35  29 2.35  23 2.35  17 2.50  26 2.50  36 2.66  45 2.66  38 2.66
                            46 2.66  43 2.66  48 2.66
   2  0.333  0.167  0.625-  28 2.35  30 2.35  24 2.35  25 2.50  18 2.50  39 2.66  44 2.66  46 2.66
                            48 2.66  37 2.66  45 2.66
   3  0.167  0.833  0.375-  25 2.35  23 2.35  29 2.35  28 2.50  19 2.50  40 2.66  47 2.66  43 2.66
                            48 2.66  38 2.66  46 2.66
   4  0.833  0.167  0.625-  26 2.35  24 2.35  30 2.35  27 2.50  20 2.50  39 2.66  44 2.66  46 2.66
                            48 2.66  47 2.66  41 2.66
   5  0.167  0.333  0.375-  29 2.35  27 2.35  25 2.35  24 2.50  21 2.50  43 2.66  48 2.66  47 2.66
                            40 2.66  36 2.66  45 2.66
   6  0.833  0.667  0.625-  30 2.35  28 2.35  26 2.35  23 2.50  22 2.50  37 2.66  41 2.66  45 2.66
                            47 2.66  44 2.66  48 2.66
   7  0.833  0.667  0.125-  31 2.35  19 2.35  17 2.35  23 2.50  22 2.50  33 2.66  35 2.66  36 2.66
                            40 2.66  42 2.66  43 2.66
   8  0.167  0.333  0.875-  18 2.35  32 2.35  20 2.35  24 2.50  21 2.50  42 2.66  44 2.66  35 2.66
                            41 2.66  37 2.66  33 2.66
   9  0.333  0.167  0.125-  19 2.35  31 2.35  21 2.35  25 2.50  18 2.50  34 2.66  38 2.66  42 2.66
                            43 2.66  36 2.66  33 2.66
  10  0.667  0.833  0.875-  20 2.35  32 2.35  22 2.35  26 2.50  17 2.50  33 2.66  37 2.66  34 2.66
                            39 2.66  42 2.66  44 2.66
  11  0.833  0.167  0.125-  17 2.35  21 2.35  31 2.35  27 2.50  20 2.50  34 2.66  38 2.66  42 2.66
                            43 2.66  35 2.66  40 2.66
  12  0.167  0.833  0.875-  18 2.35  22 2.35  32 2.35  28 2.50  19 2.50  35 2.66  41 2.66  42 2.66
                            44 2.66  39 2.66  34 2.66
  13  0.333  0.667  0.125-  21 2.35  17 2.35  19 2.35  29 2.50  32 2.50  33 2.66  35 2.66  36 2.66
                            40 2.66  38 2.66  34 2.66
  14  0.667  0.333  0.875-  22 2.35  20 2.35  18 2.35  30 2.50  31 2.50  34 2.66  39 2.66  37 2.66
                            33 2.66  35 2.66  41 2.66
  15  0.667  0.333  0.375-  23 2.35  25 2.35  27 2.35  30 2.50  31 2.50  38 2.66  46 2.66  45 2.66
                            36 2.66  40 2.66  47 2.66
  16  0.333  0.667  0.625-  24 2.35  26 2.35  28 2.35  29 2.50  32 2.50  37 2.66  41 2.66  45 2.66
                            47 2.66  46 2.66  39 2.66
  17  0.667  0.833  0.125-  11 2.35  13 2.35   7 2.35   1 2.50  10 2.50  33 2.66  36 2.66  34 2.66
                            38 2.66  42 2.66  43 2.66
  18  0.333  0.167  0.875-   8 2.35  12 2.35  14 2.35   2 2.50   9 2.50  42 2.66  44 2.66  33 2.66
                            37 2.66  34 2.66  39 2.66
  19  0.167  0.833  0.125-   9 2.35   7 2.35  13 2.35  12 2.50   3 2.50  35 2.66  40 2.66  42 2.66
                            43 2.66  38 2.66  34 2.66
  20  0.833  0.167  0.875-  10 2.35   8 2.35  14 2.35  11 2.50   4 2.50  34 2.66  39 2.66  42 2.66
                            44 2.66  35 2.66  41 2.66
  21  0.167  0.333  0.125-  13 2.35  11 2.35   9 2.35   8 2.50   5 2.50  42 2.66  43 2.66  35 2.66
                            40 2.66  36 2.66  33 2.66
  22  0.833  0.667  0.875-  14 2.35  12 2.35  10 2.35   7 2.50   6 2.50  33 2.66  35 2.66  37 2.66
                            41 2.66  42 2.66  44 2.66
  23  0.833  0.667  0.375-  15 2.35   3 2.35   1 2.35   7 2.50   6 2.50  36 2.66  40 2.66  45 2.66
                            47 2.66  43 2.66  48 2.66
  24  0.167  0.333  0.625-  16 2.35   4 2.35   2 2.35   8 2.50   5 2.50  44 2.66  48 2.66  47 2.66
                            41 2.66  37 2.66  45 2.66
  25  0.333  0.167  0.375-   3 2.35  15 2.35   5 2.35   9 2.50   2 2.50  38 2.66  43 2.66  46 2.66
                            48 2.66  36 2.66  45 2.66
  26  0.667  0.833  0.625-   4 2.35  16 2.35   6 2.35  10 2.50   1 2.50  37 2.66  45 2.66  39 2.66
                            46 2.66  44 2.66  48 2.66
  27  0.833  0.167  0.375-   1 2.35   5 2.35  15 2.35  11 2.50   4 2.50  38 2.66  43 2.66  46 2.66
                            48 2.66  47 2.66  40 2.66
  28  0.167  0.833  0.625-   2 2.35   6 2.35  16 2.35  12 2.50   3 2.50  41 2.66  47 2.66  44 2.66
                            48 2.66  39 2.66  46 2.66
  29  0.333  0.667  0.375-   5 2.35   1 2.35   3 2.35  13 2.50  16 2.50  36 2.66  40 2.66  45 2.66
                            47 2.66  46 2.66  38 2.66
  30  0.667  0.333  0.625-   6 2.35   2 2.35   4 2.35  14 2.50  15 2.50  39 2.66  46 2.66  45 2.66
                            37 2.66  41 2.66  47 2.66
  31  0.667  0.333  0.125-   7 2.35   9 2.35  11 2.35  14 2.50  15 2.50  34 2.66  38 2.66  36 2.66
                            33 2.66  35 2.66  40 2.66
  32  0.333  0.667  0.875-   8 2.35  10 2.35  12 2.35  13 2.50  16 2.50  33 2.66  35 2.66  37 2.66
                            41 2.66  39 2.66  34 2.66
  33  0.500  0.500  0.000-  36 2.50  37 2.50  10 2.66  17 2.66   7 2.66  22 2.66  31 2.66  32 2.66
                            13 2.66  14 2.66   9 2.66  18 2.66  21 2.66   8 2.66
  34  0.500  0.000  0.000-  38 2.50  39 2.50  14 2.66  31 2.66  17 2.66  20 2.66  10 2.66  11 2.66
                             9 2.66  13 2.66  32 2.66  19 2.66  12 2.66  18 2.66
  35  0.000  0.500  0.000-  40 2.50  41 2.50  12 2.66  19 2.66   8 2.66  21 2.66  22 2.66  32 2.66
                             7 2.66  13 2.66  20 2.66  11 2.66  31 2.66  14 2.66
  36  0.500  0.500  0.250-  33 2.50  45 2.50   1 2.66  17 2.66   7 2.66  23 2.66  29 2.66  31 2.66
                            13 2.66  15 2.66   9 2.66  25 2.66   5 2.66  21 2.66
  37  0.500  0.500  0.750-  33 2.50  45 2.50  10 2.66  26 2.66  22 2.66   6 2.66  30 2.66  32 2.66
                            14 2.66  16 2.66   2 2.66  18 2.66  24 2.66   8 2.66
  38  0.500  0.000  0.250-  34 2.50  46 2.50  15 2.66  31 2.66  17 2.66  25 2.66  27 2.66   9 2.66
                            11 2.66   1 2.66  29 2.66  13 2.66   3 2.66  19 2.66
  39  0.500  0.000  0.750-  34 2.50  46 2.50  14 2.66  30 2.66  20 2.66  26 2.66   4 2.66  10 2.66
                             2 2.66  16 2.66  32 2.66  12 2.66  28 2.66  18 2.66
  40  0.000  0.500  0.250-  35 2.50  47 2.50   3 2.66  19 2.66   5 2.66  21 2.66  23 2.66  29 2.66
                             7 2.66  13 2.66  27 2.66  11 2.66  15 2.66  31 2.66
  41  0.000  0.500  0.750-  35 2.50  47 2.50  12 2.66  28 2.66  22 2.66  24 2.66   8 2.66  32 2.66
                             6 2.66  16 2.66   4 2.66  20 2.66  30 2.66  14 2.66
  42  0.000  0.000  0.000-  43 2.50  44 2.50  18 2.66   8 2.66  21 2.66  19 2.66  20 2.66  11 2.66
                            12 2.66   9 2.66   7 2.66  22 2.66  17 2.66  10 2.66
  43  0.000  0.000  0.250-  42 2.50  48 2.50   5 2.66  21 2.66  19 2.66   3 2.66  25 2.66  27 2.66
                             9 2.66  11 2.66   7 2.66  23 2.66  17 2.66   1 2.66
  44  0.000  0.000  0.750-  42 2.50  48 2.50  18 2.66   8 2.66  24 2.66  20 2.66   2 2.66  28 2.66
                            12 2.66   4 2.66   6 2.66  22 2.66  26 2.66  10 2.66
  45  0.500  0.500  0.500-  36 2.50  37 2.50   1 2.66  26 2.66  23 2.66   6 2.66  29 2.66  30 2.66
                            15 2.66  16 2.66  25 2.66   2 2.66   5 2.66  24 2.66
  46  0.500  0.000  0.500-  38 2.50  39 2.50  15 2.66  30 2.66  25 2.66  26 2.66  27 2.66   2 2.66
                             4 2.66   1 2.66  29 2.66  16 2.66   3 2.66  28 2.66
  47  0.000  0.500  0.500-  40 2.50  41 2.50   3 2.66  28 2.66  23 2.66  24 2.66   5 2.66  29 2.66
                             6 2.66  16 2.66   4 2.66  27 2.66  15 2.66  30 2.66
  48  0.000  0.000  0.500-  43 2.50  44 2.50   5 2.66  24 2.66   3 2.66  25 2.66  27 2.66  28 2.66
                             4 2.66   2 2.66   6 2.66  23 2.66   1 2.66  26 2.66
 
  LATTYP: Found a hexagonal cell.
 ALAT       =     8.1330404282
 C/A-ratio  =     1.2280106345
  
  Lattice vectors:
  
 A1 = (   8.1330404282,   0.0000000000,   0.0000000000)
 A2 = (  -4.0665202141,   7.0434196208,   0.0000000000)
 A3 = (   0.0000000000,   0.0000000000,   9.9874601364)


Analysis of symmetry for initial positions (statically):
=====================================================================
 Subroutine PRICEL returns:
 Original cell was already a primitive cell.
 

 Routine SETGRP: Setting up the symmetry group for a 
 hexagonal supercell.


 Subroutine GETGRP returns: Found 12 space group operations
 (whereof 12 operations were pure point group operations)
 out of a pool of 24 trial point group operations.


The static configuration has the point symmetry D_3d.


Analysis of symmetry for dynamics (positions and initial velocities):
=====================================================================
 Subroutine PRICEL returns:
 Original cell was already a primitive cell.
 

 Routine SETGRP: Setting up the symmetry group for a 
 hexagonal supercell.


 Subroutine GETGRP returns: Found 12 space group operations
 (whereof 12 operations were pure point group operations)
 out of a pool of 24 trial point group operations.


The dynamic configuration has the point symmetry D_3d.


 Subroutine INISYM returns: Found 12 space group operations
 (whereof 12 operations are pure point group operations),
 and found     1 'primitive' translations


----------------------------------------------------------------------------------------

                                     Primitive cell                                     

  volume of cell :     572.1258

  direct lattice vectors                    reciprocal lattice vectors
     8.133040428  0.000000000  0.000000000     0.122955248  0.070988245  0.000000000
    -4.066520214  7.043419621  0.000000000     0.000000000  0.141976491  0.000000000
     0.000000000  0.000000000  9.987460136     0.000000000  0.000000000  0.100125556

  length of vectors
     8.133040428  8.133040428  9.987460136     0.141976491  0.141976491  0.100125556

  position of ions in fractional coordinates (direct lattice)
     0.666666666  0.833333333  0.375000000
     0.333333333  0.166666666  0.625000000
     0.166666666  0.833333333  0.375000000
     0.833333333  0.166666666  0.625000000
     0.166666666  0.333333333  0.375000000
     0.833333333  0.666666666  0.625000000
     0.833333333  0.666666666  0.125000000
     0.166666666  0.333333333  0.875000000
     0.333333333  0.166666666  0.125000000
     0.666666666  0.833333333  0.875000000
     0.833333333  0.166666666  0.125000000
     0.166666666  0.833333333  0.875000000
     0.333333333  0.666666666  0.125000000
     0.666666666  0.333333333  0.875000000
     0.666666666  0.333333333  0.375000000
     0.333333333  0.666666666  0.625000000
     0.666666666  0.833333333  0.125000000
     0.333333313  0.166666666  0.875000000
     0.166666666  0.833333333  0.125000000
     0.833333333  0.166666666  0.875000000
     0.166666666  0.333333333  0.125000000
     0.833333333  0.666666666  0.875000000
     0.833333333  0.666666666  0.375000000
     0.166666666  0.333333333  0.625000000
     0.333333333  0.166666666  0.375000000
     0.666666666  0.833333333  0.625000000
     0.833333333  0.166666666  0.375000000
     0.166666666  0.833333333  0.625000000
     0.333333333  0.666666666  0.375000000
     0.666666666  0.333333333  0.625000000
     0.666666666  0.333333333  0.125000000
     0.333333333  0.666666666  0.875000000
     0.500000000  0.500000000  0.000000000
     0.500000000  0.000000000  0.000000000
     1.000000000  0.500000000  0.000000000
     0.500000000  0.500000000  0.250000000
     0.500000000  0.500000000  0.750000000
     0.500000000  0.000000000  0.250000000
     0.500000000  0.000000000  0.750000000
     1.000000000  0.500000000  0.250000000
     1.000000000  0.500000000  0.750000000
     0.000000000  0.000000000  0.000000000
     0.000000000  0.000000000  0.250000000
     0.000000000  0.000000000  0.750000000
     0.500000000  0.500000000  0.500000000
     0.500000000  0.000000000  0.500000000
     1.000000000  0.500000000  0.500000000
     0.000000000  0.000000000  0.500000000

  ion indices of the primitive-cell ions
   primitive index   ion index
                 1           1
                 2           2
                 3           3
                 4           4
                 5           5
                 6           6
                 7           7
                 8           8
                 9           9
                10          10
                11          11
                12          12
                13          13
                14          14
                15          15
                16          16
                17          17
                18          18
                19          19
                20          20
                21          21
                22          22
                23          23
                24          24
                25          25
                26          26
                27          27
                28          28
                29          29
                30          30
                31          31
                32          32
                33          33
                34          34
                35          35
                36          36
                37          37
                38          38
                39          39
                40          40
                41          41
                42          42
                43          43
                44          44
                45          45
                46          46
                47          47
                48          48

----------------------------------------------------------------------------------------

 
 
 KPOINTS: Auto                                    

Automatic generation of k-mesh.
Space group operators:
 irot       det(A)        alpha          n_x          n_y          n_z        tau_x        tau_y        tau_z
    1     1.000000     0.000000     1.000000     0.000000     0.000000     0.000000     0.000000     0.000000
    2    -1.000000     0.000000     1.000000     0.000000     0.000000     0.000000     0.000000     0.000000
    3     1.000000   120.000000     0.000000     0.000000    -1.000000     0.000000     0.000000     0.000000
    4    -1.000000   120.000000     0.000000     0.000000    -1.000000     0.000000     0.000000     0.000000
    5     1.000000   120.000000     0.000000     0.000000     1.000000     0.000000     0.000000     0.000000
    6    -1.000000   120.000000     0.000000     0.000000     1.000000     0.000000     0.000000     0.000000
    7     1.000000   180.000000     1.000000     0.000000     0.000000     0.000000     0.000000     0.000000
    8    -1.000000   180.000000     1.000000     0.000000     0.000000     0.000000     0.000000     0.000000
    9     1.000000   180.000000     0.500000    -0.866025     0.000000     0.000000     0.000000     0.000000
   10    -1.000000   180.000000     0.500000    -0.866025     0.000000     0.000000     0.000000     0.000000
   11     1.000000   180.000000    -0.500000    -0.866025     0.000000     0.000000     0.000000     0.000000
   12    -1.000000   180.000000    -0.500000    -0.866025     0.000000     0.000000     0.000000     0.000000
 
 Subroutine IBZKPT returns following result:
 ===========================================
 
 Found     69 irreducible k-points:
 
 Following reciprocal coordinates:
            Coordinates               Weight
  0.000000  0.000000  0.000000      1.000000
  0.111111  0.000000  0.000000      6.000000
  0.222222  0.000000  0.000000      6.000000
  0.333333  0.000000  0.000000      6.000000
  0.444444  0.000000  0.000000      6.000000
  0.111111  0.111111  0.000000      6.000000
  0.222222  0.111111  0.000000     12.000000
  0.333333  0.111111  0.000000     12.000000
  0.444444  0.111111  0.000000      6.000000
  0.222222  0.222222  0.000000      6.000000
  0.333333  0.222222  0.000000     12.000000
  0.333333  0.333333  0.000000      2.000000
  0.000000  0.000000  0.142857      2.000000
  0.111111  0.000000  0.142857      6.000000
  0.111111 -0.111111  0.142857      6.000000
  0.222222  0.000000  0.142857      6.000000
  0.222222 -0.222222  0.142857      6.000000
  0.333333  0.000000  0.142857      6.000000
  0.333333 -0.333333  0.142857      6.000000
  0.444444  0.000000  0.142857      6.000000
  0.444444 -0.444444  0.142857      6.000000
  0.111111  0.111111  0.142857     12.000000
  0.222222  0.111111  0.142857     12.000000
  0.333333 -0.222222  0.142857     12.000000
  0.333333  0.111111  0.142857     12.000000
  0.444444 -0.333333  0.142857     12.000000
  0.444444  0.111111  0.142857     12.000000
  0.222222  0.222222  0.142857     12.000000
  0.333333  0.222222  0.142857     12.000000
 -0.444444 -0.333333  0.142857     12.000000
  0.333333  0.333333  0.142857      4.000000
  0.000000  0.000000  0.285714      2.000000
  0.111111  0.000000  0.285714      6.000000
  0.111111 -0.111111  0.285714      6.000000
  0.222222  0.000000  0.285714      6.000000
  0.222222 -0.222222  0.285714      6.000000
  0.333333  0.000000  0.285714      6.000000
  0.333333 -0.333333  0.285714      6.000000
  0.444444  0.000000  0.285714      6.000000
  0.444444 -0.444444  0.285714      6.000000
  0.111111  0.111111  0.285714     12.000000
  0.222222  0.111111  0.285714     12.000000
  0.333333 -0.222222  0.285714     12.000000
  0.333333  0.111111  0.285714     12.000000
  0.444444 -0.333333  0.285714     12.000000
  0.444444  0.111111  0.285714     12.000000
  0.222222  0.222222  0.285714     12.000000
  0.333333  0.222222  0.285714     12.000000
 -0.444444 -0.333333  0.285714     12.000000
  0.333333  0.333333  0.285714      4.000000
  0.000000  0.000000  0.428571      2.000000
  0.111111  0.000000  0.428571      6.000000
  0.111111 -0.111111  0.428571      6.000000
  0.222222  0.000000  0.428571      6.000000
  0.222222 -0.222222  0.428571      6.000000
  0.333333  0.000000  0.428571      6.000000
  0.333333 -0.333333  0.428571      6.000000
  0.444444  0.000000  0.428571      6.000000
  0.444444 -0.444444  0.428571      6.000000
  0.111111  0.111111  0.428571     12.000000
  0.222222  0.111111  0.428571     12.000000
  0.333333 -0.222222  0.428571     12.000000
  0.333333  0.111111  0.428571     12.000000
  0.444444 -0.333333  0.428571     12.000000
  0.444444  0.111111  0.428571     12.000000
  0.222222  0.222222  0.428571     12.000000
  0.333333  0.222222  0.428571     12.000000
 -0.444444 -0.333333  0.428571     12.000000
  0.333333  0.333333  0.428571      4.000000
 
 Following cartesian coordinates:
            Coordinates               Weight
  0.000000  0.000000  0.000000      1.000000
  0.013662  0.007888  0.000000      6.000000
  0.027323  0.015775  0.000000      6.000000
  0.040985  0.023663  0.000000      6.000000
  0.054647  0.031550  0.000000      6.000000
  0.013662  0.023663  0.000000      6.000000
  0.027323  0.031550  0.000000     12.000000
  0.040985  0.039438  0.000000     12.000000
  0.054647  0.047325  0.000000      6.000000
  0.027323  0.047325  0.000000      6.000000
  0.040985  0.055213  0.000000     12.000000
  0.040985  0.070988  0.000000      2.000000
  0.000000  0.000000  0.014304      2.000000
  0.013662  0.007888  0.014304      6.000000
  0.013662 -0.007888  0.014304      6.000000
  0.027323  0.015775  0.014304      6.000000
  0.027323 -0.015775  0.014304      6.000000
  0.040985  0.023663  0.014304      6.000000
  0.040985 -0.023663  0.014304      6.000000
  0.054647  0.031550  0.014304      6.000000
  0.054647 -0.031550  0.014304      6.000000
  0.013662  0.023663  0.014304     12.000000
  0.027323  0.031550  0.014304     12.000000
  0.040985 -0.007888  0.014304     12.000000
  0.040985  0.039438  0.014304     12.000000
  0.054647 -0.015775  0.014304     12.000000
  0.054647  0.047325  0.014304     12.000000
  0.027323  0.047325  0.014304     12.000000
  0.040985  0.055213  0.014304     12.000000
 -0.054647 -0.078876  0.014304     12.000000
  0.040985  0.070988  0.014304      4.000000
  0.000000  0.000000  0.028607      2.000000
  0.013662  0.007888  0.028607      6.000000
  0.013662 -0.007888  0.028607      6.000000
  0.027323  0.015775  0.028607      6.000000
  0.027323 -0.015775  0.028607      6.000000
  0.040985  0.023663  0.028607      6.000000
  0.040985 -0.023663  0.028607      6.000000
  0.054647  0.031550  0.028607      6.000000
  0.054647 -0.031550  0.028607      6.000000
  0.013662  0.023663  0.028607     12.000000
  0.027323  0.031550  0.028607     12.000000
  0.040985 -0.007888  0.028607     12.000000
  0.040985  0.039438  0.028607     12.000000
  0.054647 -0.015775  0.028607     12.000000
  0.054647  0.047325  0.028607     12.000000
  0.027323  0.047325  0.028607     12.000000
  0.040985  0.055213  0.028607     12.000000
 -0.054647 -0.078876  0.028607     12.000000
  0.040985  0.070988  0.028607      4.000000
  0.000000  0.000000  0.042911      2.000000
  0.013662  0.007888  0.042911      6.000000
  0.013662 -0.007888  0.042911      6.000000
  0.027323  0.015775  0.042911      6.000000
  0.027323 -0.015775  0.042911      6.000000
  0.040985  0.023663  0.042911      6.000000
  0.040985 -0.023663  0.042911      6.000000
  0.054647  0.031550  0.042911      6.000000
  0.054647 -0.031550  0.042911      6.000000
  0.013662  0.023663  0.042911     12.000000
  0.027323  0.031550  0.042911     12.000000
  0.040985 -0.007888  0.042911     12.000000
  0.040985  0.039438  0.042911     12.000000
  0.054647 -0.015775  0.042911     12.000000
  0.054647  0.047325  0.042911     12.000000
  0.027323  0.047325  0.042911     12.000000
  0.040985  0.055213  0.042911     12.000000
 -0.054647 -0.078876  0.042911     12.000000
  0.040985  0.070988  0.042911      4.000000
 


--------------------------------------------------------------------------------------------------------




 Dimension of arrays:
   k-points           NKPTS =     69   k-points in BZ     NKDIM =     69   number of bands    NBANDS=    360
   number of dos      NEDOS =    301   number of ions     NIONS =     48
   non local maximal  LDIM  =      6   non local SUM 2l+1 LMDIM =     18
   total plane-waves  NPLWV = 219520
   max r-space proj   IRMAX =      1   max aug-charges    IRDMAX=  21051
   dimension x,y,z NGX =    56 NGY =   56 NGZ =   70
   dimension x,y,z NGXF=   112 NGYF=  112 NGZF=  140
   support grid    NGXF=   112 NGYF=  112 NGZF=  140
   ions per type =              16  16  15   1
   NGX,Y,Z   is equivalent  to a cutoff of  11.45, 11.45, 11.65 a.u.
   NGXF,Y,Z  is equivalent  to a cutoff of  22.89, 22.89, 23.30 a.u.

 SYSTEM =  MnFeNiGe_nmag_hex                       
 POSCAR =  MnFeNiGe_hex                            

 Startparameter for this run:
   NWRITE =      2    write-flag & timer
   PREC   = accura    normal or accurate (medium, high low for compatibility)
   ISTART =      0    job   : 0-new  1-cont  2-samecut
   ICHARG =      2    charge: 1-file 2-atom 10-const
   ISPIN  =      1    spin polarized calculation?
   LNONCOLLINEAR =      F non collinear calculations
   LSORBIT =      F    spin-orbit coupling
   INIWAV =      1    electr: 0-lowe 1-rand  2-diag
   LASPH  =      F    aspherical Exc in radial PAW
   METAGGA=      F    non-selfconsistent MetaGGA calc.

 Electronic Relaxation 1
   ENCUT  =  450.0 eV  33.07 Ry    5.75 a.u.  14.07 14.07 17.27*2*pi/ulx,y,z
   ENINI  =  450.0     initial cutoff
   ENAUG  =  544.6 eV  augmentation charge cutoff
   NELM   =    200;   NELMIN=  5; NELMDL= -5     # of ELM steps 
   EDIFF  = 0.1E-04   stopping-criterion for ELM
   LREAL  =      F    real-space projection
   NLSPLINE    = F    spline interpolate recip. space projectors
   LCOMPAT=      F    compatible to vasp.4.4
   GGA_COMPAT  = T    GGA compatible to vasp.4.4-vasp.4.6
   LMAXPAW     = -100 max onsite density
   LMAXMIX     =    2 max onsite mixed and CHGCAR
   VOSKOWN=      0    Vosko Wilk Nusair interpolation
   ROPT   =    0.00000   0.00000   0.00000   0.00000
 Ionic relaxation
   EDIFFG = 0.1E-03   stopping-criterion for IOM
   NSW    =    400    number of steps for IOM
   NBLOCK =      1;   KBLOCK =    400    inner block; outer block 
   IBRION =      2    ionic relax: 0-MD 1-quasi-New 2-CG
   NFREE  =      1    steps in history (QN), initial steepest desc. (CG)
   ISIF   =      6    stress and relaxation
   IWAVPR =     11    prediction:  0-non 1-charg 2-wave 3-comb
   ISYM   =      2    0-nonsym 1-usesym 2-fastsym
   LCORR  =      T    Harris-Foulkes like correction to forces

   POTIM  = 0.5000    time-step for ionic-motion
   TEIN   =    0.0    initial temperature
   TEBEG  =    0.0;   TEEND  =   0.0 temperature during run
   SMASS  =  -3.00    Nose mass-parameter (am)
   estimated Nose-frequenzy (Omega)   =  0.10E-29 period in steps = 0.13E+47 mass=  -0.151E-26a.u.
   SCALEE = 1.0000    scale energy and forces
   NPACO  =    256;   APACO  = 16.0  distance and # of slots for P.C.
   PSTRESS=    0.0 pullay stress

  Mass of Ions in am
   POMASS =  58.69 72.61 54.94 55.85
  Ionic Valenz
   ZVAL   =  10.00  4.00  7.00  8.00
  Atomic Wigner-Seitz radii
   RWIGS  =  -1.00 -1.00 -1.00 -1.00
  virtual crystal weights 
   VCA    =   1.00  1.00  1.00  1.00
   NELECT =     337.0000    total number of electrons
   NUPDOWN=      -1.0000    fix difference up-down

 DOS related values:
   EMIN   =  10.00;   EMAX   =-10.00  energy-range for DOS
   EFERMI =   0.00
   ISMEAR =     1;   SIGMA  =   0.20  broadening in eV -4-tet -1-fermi 0-gaus

 Electronic relaxation 2 (details)
   IALGO  =     38    algorithm
   LDIAG  =      T    sub-space diagonalisation (order eigenvalues)
   LSUBROT=      F    optimize rotation matrix (better conditioning)
   TURBO    =      0    0=normal 1=particle mesh
   IRESTART =      0    0=no restart 2=restart with 2 vectors
   NREBOOT  =      0    no. of reboots
   NMIN     =      0    reboot dimension
   EREF     =   0.00    reference energy to select bands
   IMIX   =      4    mixing-type and parameters
     AMIX     =   0.40;   BMIX     =  1.00
     AMIX_MAG =   1.60;   BMIX_MAG =  1.00
     AMIN     =   0.10
     WC   =   100.;   INIMIX=   1;  MIXPRE=   1;  MAXMIX= -45

 Intra band minimization:
   WEIMIN = 0.0010     energy-eigenvalue tresh-hold
   EBREAK =  0.69E-08  absolut break condition
   DEPER  =   0.30     relativ break condition  

   TIME   =   0.40     timestep for ELM

  volume/ion in A,a.u.               =      11.92        80.44
  Fermi-wavevector in a.u.,A,eV,Ry     =   1.372316  2.593302 25.623206  1.883253
  Thomas-Fermi vector in A             =   2.497934
 
 Write flags
   LWAVE        =      T    write WAVECAR
   LDOWNSAMPLE  =      F    k-point downsampling of WAVECAR
   LCHARG       =      T    write CHGCAR
   LVTOT        =      F    write LOCPOT, total local potential
   LVHAR        =      F    write LOCPOT, Hartree potential only
   LELF         =      F    write electronic localiz. function (ELF)
   LORBIT       =      0    0 simple, 1 ext, 2 COOP (PROOUT), +10 PAW based schemes


 Dipole corrections
   LMONO  =      F    monopole corrections only (constant potential shift)
   LDIPOL =      F    correct potential (dipole corrections)
   IDIPOL =      0    1-x, 2-y, 3-z, 4-all directions 
   EPSILON=  1.0000000 bulk dielectric constant

 Exchange correlation treatment:
   GGA     =    --    GGA type
   LEXCH   =     8    internal setting for exchange type
   VOSKOWN=      0    Vosko Wilk Nusair interpolation
   LHFCALC =     F    Hartree Fock is set to
   LHFONE  =     F    Hartree Fock one center treatment
   AEXX    =    0.0000 exact exchange contribution

 Linear response parameters
   LEPSILON=     F    determine dielectric tensor
   LRPA    =     F    only Hartree local field effects (RPA)
   LNABLA  =     F    use nabla operator in PAW spheres
   LVEL    =     F    velocity operator in full k-point grid
   LINTERFAST=   F  fast interpolation
   KINTER  =     0    interpolate to denser k-point grid
   CSHIFT  =0.1000    complex shift for real part using Kramers Kronig
   OMEGAMAX=  -1.0    maximum frequency
   DEG_THRESHOLD= 0.2000000E-02 threshold for treating states as degnerate
   RTIME   =   -0.100 relaxation time in fs
  (WPLASMAI=    0.000 imaginary part of plasma frequency in eV, 0.658/RTIME)
   DFIELD  = 0.0000000 0.0000000 0.0000000 field for delta impulse in time
 
 Orbital magnetization related:
   ORBITALMAG=     F  switch on orbital magnetization
   LCHIMAG   =     F  perturbation theory with respect to B field
   DQ        =  0.001000  dq finite difference perturbation B field
   LLRAUG    =     F  two centre corrections for induced B field



--------------------------------------------------------------------------------------------------------


 conjugate gradient relaxation of ions
 charge density and potential will be updated during run
 non-spin polarized calculation
 Variant of blocked Davidson
 Davidson routine will perform the subspace rotation
 perform sub-space diagonalisation
    after iterative eigenvector-optimisation
 modified Broyden-mixing scheme, WC =      100.0
 initial mixing is a Kerker type mixing with AMIX =  0.4000 and BMIX =      1.0000
 Hartree-type preconditioning will be used
 using additional bands          191
 reciprocal scheme for non local part
 use partial core corrections
 calculate Harris-corrections to forces 
   (improved forces if not selfconsistent)
 use gradient corrections 
 use of overlap-Matrix (Vanderbilt PP)
 Methfessel and Paxton  Order N= 1 SIGMA  =   0.20


--------------------------------------------------------------------------------------------------------


  energy-cutoff  :      450.00
  volume of cell :      572.13
      direct lattice vectors                 reciprocal lattice vectors
     8.133040428  0.000000000  0.000000000     0.122955248  0.070988245  0.000000000
    -4.066520214  7.043419621  0.000000000     0.000000000  0.141976491  0.000000000
     0.000000000  0.000000000  9.987460136     0.000000000  0.000000000  0.100125556

  length of vectors
     8.133040428  8.133040428  9.987460136     0.141976491  0.141976491  0.100125556


 
 k-points in units of 2pi/SCALE and weight: Auto                                    
   0.00000000  0.00000000  0.00000000       0.002
   0.01366169  0.00788758  0.00000000       0.011
   0.02732339  0.01577517  0.00000000       0.011
   0.04098508  0.02366275  0.00000000       0.011
   0.05464678  0.03155033  0.00000000       0.011
   0.01366169  0.02366275  0.00000000       0.011
   0.02732339  0.03155033  0.00000000       0.021
   0.04098508  0.03943791  0.00000000       0.021
   0.05464678  0.04732550  0.00000000       0.011
   0.02732339  0.04732550  0.00000000       0.011
   0.04098508  0.05521308  0.00000000       0.021
   0.04098508  0.07098825  0.00000000       0.004
   0.00000000  0.00000000  0.01430365       0.004
   0.01366169  0.00788758  0.01430365       0.011
   0.01366169 -0.00788758  0.01430365       0.011
   0.02732339  0.01577517  0.01430365       0.011
   0.02732339 -0.01577517  0.01430365       0.011
   0.04098508  0.02366275  0.01430365       0.011
   0.04098508 -0.02366275  0.01430365       0.011
   0.05464678  0.03155033  0.01430365       0.011
   0.05464678 -0.03155033  0.01430365       0.011
   0.01366169  0.02366275  0.01430365       0.021
   0.02732339  0.03155033  0.01430365       0.021
   0.04098508 -0.00788758  0.01430365       0.021
   0.04098508  0.03943791  0.01430365       0.021
   0.05464678 -0.01577517  0.01430365       0.021
   0.05464678  0.04732550  0.01430365       0.021
   0.02732339  0.04732550  0.01430365       0.021
   0.04098508  0.05521308  0.01430365       0.021
  -0.05464678 -0.07887583  0.01430365       0.021
   0.04098508  0.07098825  0.01430365       0.007
   0.00000000  0.00000000  0.02860730       0.004
   0.01366169  0.00788758  0.02860730       0.011
   0.01366169 -0.00788758  0.02860730       0.011
   0.02732339  0.01577517  0.02860730       0.011
   0.02732339 -0.01577517  0.02860730       0.011
   0.04098508  0.02366275  0.02860730       0.011
   0.04098508 -0.02366275  0.02860730       0.011
   0.05464678  0.03155033  0.02860730       0.011
   0.05464678 -0.03155033  0.02860730       0.011
   0.01366169  0.02366275  0.02860730       0.021
   0.02732339  0.03155033  0.02860730       0.021
   0.04098508 -0.00788758  0.02860730       0.021
   0.04098508  0.03943791  0.02860730       0.021
   0.05464678 -0.01577517  0.02860730       0.021
   0.05464678  0.04732550  0.02860730       0.021
   0.02732339  0.04732550  0.02860730       0.021
   0.04098508  0.05521308  0.02860730       0.021
  -0.05464678 -0.07887583  0.02860730       0.021
   0.04098508  0.07098825  0.02860730       0.007
   0.00000000  0.00000000  0.04291095       0.004
   0.01366169  0.00788758  0.04291095       0.011
   0.01366169 -0.00788758  0.04291095       0.011
   0.02732339  0.01577517  0.04291095       0.011
   0.02732339 -0.01577517  0.04291095       0.011
   0.04098508  0.02366275  0.04291095       0.011
   0.04098508 -0.02366275  0.04291095       0.011
   0.05464678  0.03155033  0.04291095       0.011
   0.05464678 -0.03155033  0.04291095       0.011
   0.01366169  0.02366275  0.04291095       0.021
   0.02732339  0.03155033  0.04291095       0.021
   0.04098508 -0.00788758  0.04291095       0.021
   0.04098508  0.03943791  0.04291095       0.021
   0.05464678 -0.01577517  0.04291095       0.021
   0.05464678  0.04732550  0.04291095       0.021
   0.02732339  0.04732550  0.04291095       0.021
   0.04098508  0.05521308  0.04291095       0.021
  -0.05464678 -0.07887583  0.04291095       0.021
   0.04098508  0.07098825  0.04291095       0.007
 
 k-points in reciprocal lattice and weights: Auto                                    
   0.00000000  0.00000000  0.00000000       0.002
   0.11111111  0.00000000  0.00000000       0.011
   0.22222222  0.00000000  0.00000000       0.011
   0.33333333  0.00000000  0.00000000       0.011
   0.44444444  0.00000000  0.00000000       0.011
   0.11111111  0.11111111  0.00000000       0.011
   0.22222222  0.11111111  0.00000000       0.021
   0.33333333  0.11111111  0.00000000       0.021
   0.44444444  0.11111111  0.00000000       0.011
   0.22222222  0.22222222  0.00000000       0.011
   0.33333333  0.22222222  0.00000000       0.021
   0.33333333  0.33333333  0.00000000       0.004
   0.00000000  0.00000000  0.14285714       0.004
   0.11111111  0.00000000  0.14285714       0.011
   0.11111111 -0.11111111  0.14285714       0.011
   0.22222222  0.00000000  0.14285714       0.011
   0.22222222 -0.22222222  0.14285714       0.011
   0.33333333  0.00000000  0.14285714       0.011
   0.33333333 -0.33333333  0.14285714       0.011
   0.44444444  0.00000000  0.14285714       0.011
   0.44444444 -0.44444444  0.14285714       0.011
   0.11111111  0.11111111  0.14285714       0.021
   0.22222222  0.11111111  0.14285714       0.021
   0.33333333 -0.22222222  0.14285714       0.021
   0.33333333  0.11111111  0.14285714       0.021
   0.44444444 -0.33333333  0.14285714       0.021
   0.44444444  0.11111111  0.14285714       0.021
   0.22222222  0.22222222  0.14285714       0.021
   0.33333333  0.22222222  0.14285714       0.021
  -0.44444444 -0.33333333  0.14285714       0.021
   0.33333333  0.33333333  0.14285714       0.007
   0.00000000  0.00000000  0.28571429       0.004
   0.11111111  0.00000000  0.28571429       0.011
   0.11111111 -0.11111111  0.28571429       0.011
   0.22222222  0.00000000  0.28571429       0.011
   0.22222222 -0.22222222  0.28571429       0.011
   0.33333333  0.00000000  0.28571429       0.011
   0.33333333 -0.33333333  0.28571429       0.011
   0.44444444  0.00000000  0.28571429       0.011
   0.44444444 -0.44444444  0.28571429       0.011
   0.11111111  0.11111111  0.28571429       0.021
   0.22222222  0.11111111  0.28571429       0.021
   0.33333333 -0.22222222  0.28571429       0.021
   0.33333333  0.11111111  0.28571429       0.021
   0.44444444 -0.33333333  0.28571429       0.021
   0.44444444  0.11111111  0.28571429       0.021
   0.22222222  0.22222222  0.28571429       0.021
   0.33333333  0.22222222  0.28571429       0.021
  -0.44444444 -0.33333333  0.28571429       0.021
   0.33333333  0.33333333  0.28571429       0.007
   0.00000000  0.00000000  0.42857143       0.004
   0.11111111  0.00000000  0.42857143       0.011
   0.11111111 -0.11111111  0.42857143       0.011
   0.22222222  0.00000000  0.42857143       0.011
   0.22222222 -0.22222222  0.42857143       0.011
   0.33333333  0.00000000  0.42857143       0.011
   0.33333333 -0.33333333  0.42857143       0.011
   0.44444444  0.00000000  0.42857143       0.011
   0.44444444 -0.44444444  0.42857143       0.011
   0.11111111  0.11111111  0.42857143       0.021
   0.22222222  0.11111111  0.42857143       0.021
   0.33333333 -0.22222222  0.42857143       0.021
   0.33333333  0.11111111  0.42857143       0.021
   0.44444444 -0.33333333  0.42857143       0.021
   0.44444444  0.11111111  0.42857143       0.021
   0.22222222  0.22222222  0.42857143       0.021
   0.33333333  0.22222222  0.42857143       0.021
  -0.44444444 -0.33333333  0.42857143       0.021
   0.33333333  0.33333333  0.42857143       0.007
 
 position of ions in fractional coordinates (direct lattice) 
   0.66666667  0.83333333  0.37500000
   0.33333333  0.16666667  0.62500000
   0.16666667  0.83333333  0.37500000
   0.83333333  0.16666667  0.62500000
   0.16666667  0.33333333  0.37500000
   0.83333333  0.66666667  0.62500000
   0.83333333  0.66666667  0.12500000
   0.16666667  0.33333333  0.87500000
   0.33333333  0.16666667  0.12500000
   0.66666667  0.83333333  0.87500000
   0.83333333  0.16666667  0.12500000
   0.16666667  0.83333333  0.87500000
   0.33333333  0.66666667  0.12500000
   0.66666667  0.33333333  0.87500000
   0.66666667  0.33333333  0.37500000
   0.33333333  0.66666667  0.62500000
   0.66666667  0.83333333  0.12500000
   0.33333331  0.16666667  0.87500000
   0.16666667  0.83333333  0.12500000
   0.83333333  0.16666667  0.87500000
   0.16666667  0.33333333  0.12500000
   0.83333333  0.66666667  0.87500000
   0.83333333  0.66666667  0.37500000
   0.16666667  0.33333333  0.62500000
   0.33333333  0.16666667  0.37500000
   0.66666667  0.83333333  0.62500000
   0.83333333  0.16666667  0.37500000
   0.16666667  0.83333333  0.62500000
   0.33333333  0.66666667  0.37500000
   0.66666667  0.33333333  0.62500000
   0.66666667  0.33333333  0.12500000
   0.33333333  0.66666667  0.87500000
   0.50000000  0.50000000  0.00000000
   0.50000000  0.00000000  0.00000000
   0.00000000  0.50000000  0.00000000
   0.50000000  0.50000000  0.25000000
   0.50000000  0.50000000  0.75000000
   0.50000000  0.00000000  0.25000000
   0.50000000  0.00000000  0.75000000
   0.00000000  0.50000000  0.25000000
   0.00000000  0.50000000  0.75000000
   0.00000000  0.00000000  0.00000000
   0.00000000  0.00000000  0.25000000
   0.00000000  0.00000000  0.75000000
   0.50000000  0.50000000  0.50000000
   0.50000000  0.00000000  0.50000000
   0.00000000  0.50000000  0.50000000
   0.00000000  0.00000000  0.50000000
 
 position of ions in cartesian coordinates  (Angst):
   2.03326010  5.86951635  3.74529755
   2.03326011  1.17390327  6.24216259
  -2.03326011  5.86951635  3.74529755
   6.09978032  1.17390327  6.24216259
  -0.00000000  2.34780654  3.74529755
   4.06652021  4.69561308  6.24216259
   4.06652021  4.69561308  1.24843252
  -0.00000000  2.34780654  8.73902762
   2.03326011  1.17390327  1.24843252
   2.03326010  5.86951635  8.73902762
   6.09978032  1.17390327  1.24843252
  -2.03326011  5.86951635  8.73902762
   0.00000000  4.69561308  1.24843252
   4.06652021  2.34780654  8.73902762
   4.06652021  2.34780654  3.74529755
   0.00000000  4.69561308  6.24216259
   2.03326010  5.86951635  1.24843252
   2.03325994  1.17390327  8.73902762
  -2.03326011  5.86951635  1.24843252
   6.09978032  1.17390327  8.73902762
  -0.00000000  2.34780654  1.24843252
   4.06652021  4.69561308  8.73902762
   4.06652021  4.69561308  3.74529755
  -0.00000000  2.34780654  6.24216259
   2.03326011  1.17390327  3.74529755
   2.03326010  5.86951635  6.24216259
   6.09978032  1.17390327  3.74529755
  -2.03326011  5.86951635  6.24216259
   0.00000000  4.69561308  3.74529755
   4.06652021  2.34780654  6.24216259
   4.06652021  2.34780654  1.24843252
   0.00000000  4.69561308  8.73902762
   2.03326011  3.52170981  0.00000000
   4.06652021  0.00000000  0.00000000
  -2.03326011  3.52170981  0.00000000
   2.03326011  3.52170981  2.49686503
   2.03326011  3.52170981  7.49059510
   4.06652021  0.00000000  2.49686503
   4.06652021  0.00000000  7.49059510
  -2.03326011  3.52170981  2.49686503
  -2.03326011  3.52170981  7.49059510
   0.00000000  0.00000000  0.00000000
   0.00000000  0.00000000  2.49686503
   0.00000000  0.00000000  7.49059510
   2.03326011  3.52170981  4.99373007
   4.06652021  0.00000000  4.99373007
  -2.03326011  3.52170981  4.99373007
   0.00000000  0.00000000  4.99373007
 


--------------------------------------------------------------------------------------------------------


 k-point   1 :   0.0000 0.0000 0.0000  plane waves:   12389
 k-point   2 :   0.1111 0.0000 0.0000  plane waves:   12373
 k-point   3 :   0.2222 0.0000 0.0000  plane waves:   12416
 k-point   4 :   0.3333 0.0000 0.0000  plane waves:   12392
 k-point   5 :   0.4444 0.0000 0.0000  plane waves:   12394
 k-point   6 :   0.1111 0.1111 0.0000  plane waves:   12418
 k-point   7 :   0.2222 0.1111 0.0000  plane waves:   12410
 k-point   8 :   0.3333 0.1111 0.0000  plane waves:   12405
 k-point   9 :   0.4444 0.1111 0.0000  plane waves:   12392
 k-point  10 :   0.2222 0.2222 0.0000  plane waves:   12394
 k-point  11 :   0.3333 0.2222 0.0000  plane waves:   12427
 k-point  12 :   0.3333 0.3333 0.0000  plane waves:   12432
 k-point  13 :   0.0000 0.0000 0.1429  plane waves:   12365
 k-point  14 :   0.1111 0.0000 0.1429  plane waves:   12376
 k-point  15 :   0.1111-0.1111 0.1429  plane waves:   12376
 k-point  16 :   0.2222 0.0000 0.1429  plane waves:   12382
 k-point  17 :   0.2222-0.2222 0.1429  plane waves:   12382
 k-point  18 :   0.3333 0.0000 0.1429  plane waves:   12396
 k-point  19 :   0.3333-0.3333 0.1429  plane waves:   12396
 k-point  20 :   0.4444 0.0000 0.1429  plane waves:   12414
 k-point  21 :   0.4444-0.4444 0.1429  plane waves:   12414
 k-point  22 :   0.1111 0.1111 0.1429  plane waves:   12402
 k-point  23 :   0.2222 0.1111 0.1429  plane waves:   12412
 k-point  24 :   0.3333-0.2222 0.1429  plane waves:   12412
 k-point  25 :   0.3333 0.1111 0.1429  plane waves:   12404
 k-point  26 :   0.4444-0.3333 0.1429  plane waves:   12404
 k-point  27 :   0.4444 0.1111 0.1429  plane waves:   12390
 k-point  28 :   0.2222 0.2222 0.1429  plane waves:   12395
 k-point  29 :   0.3333 0.2222 0.1429  plane waves:   12422
 k-point  30 :  -0.4444-0.3333 0.1429  plane waves:   12422
 k-point  31 :   0.3333 0.3333 0.1429  plane waves:   12429
 k-point  32 :   0.0000 0.0000 0.2857  plane waves:   12382
 k-point  33 :   0.1111 0.0000 0.2857  plane waves:   12375
 k-point  34 :   0.1111-0.1111 0.2857  plane waves:   12375
 k-point  35 :   0.2222 0.0000 0.2857  plane waves:   12389
 k-point  36 :   0.2222-0.2222 0.2857  plane waves:   12389
 k-point  37 :   0.3333 0.0000 0.2857  plane waves:   12394
 k-point  38 :   0.3333-0.3333 0.2857  plane waves:   12394
 k-point  39 :   0.4444 0.0000 0.2857  plane waves:   12396
 k-point  40 :   0.4444-0.4444 0.2857  plane waves:   12396
 k-point  41 :   0.1111 0.1111 0.2857  plane waves:   12384
 k-point  42 :   0.2222 0.1111 0.2857  plane waves:   12390
 k-point  43 :   0.3333-0.2222 0.2857  plane waves:   12390
 k-point  44 :   0.3333 0.1111 0.2857  plane waves:   12403
 k-point  45 :   0.4444-0.3333 0.2857  plane waves:   12403
 k-point  46 :   0.4444 0.1111 0.2857  plane waves:   12392
 k-point  47 :   0.2222 0.2222 0.2857  plane waves:   12423
 k-point  48 :   0.3333 0.2222 0.2857  plane waves:   12413
 k-point  49 :  -0.4444-0.3333 0.2857  plane waves:   12413
 k-point  50 :   0.3333 0.3333 0.2857  plane waves:   12426
 k-point  51 :   0.0000 0.0000 0.4286  plane waves:   12364
 k-point  52 :   0.1111 0.0000 0.4286  plane waves:   12389
 k-point  53 :   0.1111-0.1111 0.4286  plane waves:   12389
 k-point  54 :   0.2222 0.0000 0.4286  plane waves:   12384
 k-point  55 :   0.2222-0.2222 0.4286  plane waves:   12384
 k-point  56 :   0.3333 0.0000 0.4286  plane waves:   12402
 k-point  57 :   0.3333-0.3333 0.4286  plane waves:   12402
 k-point  58 :   0.4444 0.0000 0.4286  plane waves:   12403
 k-point  59 :   0.4444-0.4444 0.4286  plane waves:   12403
 k-point  60 :   0.1111 0.1111 0.4286  plane waves:   12373
 k-point  61 :   0.2222 0.1111 0.4286  plane waves:   12390
 k-point  62 :   0.3333-0.2222 0.4286  plane waves:   12390
 k-point  63 :   0.3333 0.1111 0.4286  plane waves:   12410
 k-point  64 :   0.4444-0.3333 0.4286  plane waves:   12410
 k-point  65 :   0.4444 0.1111 0.4286  plane waves:   12414
 k-point  66 :   0.2222 0.2222 0.4286  plane waves:   12408
 k-point  67 :   0.3333 0.2222 0.4286  plane waves:   12414
 k-point  68 :  -0.4444-0.3333 0.4286  plane waves:   12414
 k-point  69 :   0.3333 0.3333 0.4286  plane waves:   12408

 maximum and minimum number of plane-waves per node :      2110     2010

 maximum number of plane-waves:     12432
 maximum index in each direction: 
   IXMAX=   14   IYMAX=   14   IZMAX=   17
   IXMIN=  -14   IYMIN=  -14   IZMIN=  -17


 parallel 3D FFT for wavefunctions:
    minimum data exchange during FFTs selected (reduces bandwidth)
 parallel 3D FFT for charge:
    minimum data exchange during FFTs selected (reduces bandwidth)


 total amount of memory used by VASP MPI-rank0   346771. kBytes
=======================================================================

   base      :      30000. kBytes
   nonl-proj :      84589. kBytes
   fftplans  :       3798. kBytes
   grid      :       7284. kBytes
   one-center:        124. kBytes
   wavefun   :     220976. kBytes
 
     INWAV:  cpu time    0.0020: real time    0.0009
 Broyden mixing: mesh for mixing (old mesh)
   NGX = 29   NGY = 29   NGZ = 35
  (NGX  =112   NGY  =112   NGZ  =140)
  gives a total of  29435 points

 initial charge density was supplied:
 charge density of overlapping atoms calculated
 number of electron     337.0000000 magnetization 
 keeping initial charge density in first step


--------------------------------------------------------------------------------------------------------


 Maximum index for augmentation-charges          952 (set IRDMAX)


--------------------------------------------------------------------------------------------------------


 First call to EWALD:  gamma=   0.214
 Maximum number of real-space cells 3x 3x 2
 Maximum number of reciprocal cells 3x 3x 3

    FEWALD:  cpu time    0.0040: real time    0.0040


--------------------------------------- Iteration      1(   1)  ---------------------------------------


    POTLOK:  cpu time    0.0940: real time    0.1184
    SETDIJ:  cpu time    0.0180: real time    0.0242
     EDDAV:  cpu time  155.2804: real time  156.4808
       DOS:  cpu time    0.0240: real time    0.0273
    --------------------------------------------
      LOOP:  cpu time  155.4164: real time  156.6512

 eigenvalue-minimisations  : 49688
 total energy-change (2. order) : 0.2783069E+04  (-0.1010961E+05)
 number of electron     337.0000000 magnetization 
 augmentation part      337.0000000 magnetization 

 Free energy of the ion-electron system (eV)
  ---------------------------------------------------
  alpha Z        PSCENC =      1678.69604450
  Ewald energy   TEWEN  =    -22973.84953592
  -Hartree energ DENC   =     -6540.78385251
  -exchange      EXHF   =         0.00000000
  -V(xc)+E(xc)   XCENC  =       228.14470429
  PAW double counting   =     23474.76194546   -24095.12296225
  entropy T*S    EENTRO =        -0.00345523
  eigenvalues    EBANDS =      5242.99940213
  atomic energy  EATOM  =     25768.22672671
  Solvation  Ediel_sol  =         0.00000000
  ---------------------------------------------------
  free energy    TOTEN  =      2783.06901720 eV

  energy without entropy =     2783.07247242  energy(sigma->0) =     2783.07016894


--------------------------------------------------------------------------------------------------------




--------------------------------------- Iteration      1(   2)  ---------------------------------------


     EDDAV:  cpu time  155.1834: real time  156.3174
       DOS:  cpu time    0.0370: real time    0.0403
    --------------------------------------------
      LOOP:  cpu time  155.2204: real time  156.3588

 eigenvalue-minimisations  : 49680
 total energy-change (2. order) :-0.2661441E+04  (-0.2370179E+04)
 number of electron     337.0000000 magnetization 
 augmentation part      337.0000000 magnetization 

 Free energy of the ion-electron system (eV)
  ---------------------------------------------------
  alpha Z        PSCENC =      1678.69604450
  Ewald energy   TEWEN  =    -22973.84953592
  -Hartree energ DENC   =     -6540.78385251
  -exchange      EXHF   =         0.00000000
  -V(xc)+E(xc)   XCENC  =       228.14470429
  PAW double counting   =     23474.76194546   -24095.12296225
  entropy T*S    EENTRO =        -0.00114386
  eigenvalues    EBANDS =      2581.55619687
  atomic energy  EATOM  =     25768.22672671
  Solvation  Ediel_sol  =         0.00000000
  ---------------------------------------------------
  free energy    TOTEN  =       121.62812331 eV

  energy without entropy =      121.62926717  energy(sigma->0) =      121.62850460


--------------------------------------------------------------------------------------------------------




--------------------------------------- Iteration      1(   3)  ---------------------------------------


     EDDAV:  cpu time  155.3374: real time  156.5067
       DOS:  cpu time    0.0430: real time    0.0488
    --------------------------------------------
      LOOP:  cpu time  155.3804: real time  156.5548

 eigenvalue-minimisations  : 49752
 total energy-change (2. order) :-0.4342311E+03  (-0.3522680E+03)
 number of electron     337.0000000 magnetization 
 augmentation part      337.0000000 magnetization 

 Free energy of the ion-electron system (eV)
  ---------------------------------------------------
  alpha Z        PSCENC =      1678.69604450
  Ewald energy   TEWEN  =    -22973.84953592
  -Hartree energ DENC   =     -6540.78385251
  -exchange      EXHF   =         0.00000000
  -V(xc)+E(xc)   XCENC  =       228.14470429
  PAW double counting   =     23474.76194546   -24095.12296225
  entropy T*S    EENTRO =        -0.09028182
  eigenvalues    EBANDS =      2147.41418753
  atomic energy  EATOM  =     25768.22672671
  Solvation  Ediel_sol  =         0.00000000
  ---------------------------------------------------
  free energy    TOTEN  =      -312.60302399 eV

  energy without entropy =     -312.51274217  energy(sigma->0) =     -312.57293005


--------------------------------------------------------------------------------------------------------




--------------------------------------- Iteration      1(   4)  ---------------------------------------


     EDDAV:  cpu time  181.0135: real time  182.3763
       DOS:  cpu time    0.0430: real time    0.0497
    --------------------------------------------
      LOOP:  cpu time  181.0565: real time  182.4263

 eigenvalue-minimisations  : 60712
 total energy-change (2. order) :-0.3302811E+02  (-0.3147783E+02)
 number of electron     337.0000000 magnetization 
 augmentation part      337.0000000 magnetization 

 Free energy of the ion-electron system (eV)
  ---------------------------------------------------
  alpha Z        PSCENC =      1678.69604450
  Ewald energy   TEWEN  =    -22973.84953592
  -Hartree energ DENC   =     -6540.78385251
  -exchange      EXHF   =         0.00000000
  -V(xc)+E(xc)   XCENC  =       228.14470429
  PAW double counting   =     23474.76194546   -24095.12296225
  entropy T*S    EENTRO =        -0.09963496
  eigenvalues    EBANDS =      2114.39543268
  atomic energy  EATOM  =     25768.22672671
  Solvation  Ediel_sol  =         0.00000000
  ---------------------------------------------------
  free energy    TOTEN  =      -345.63113198 eV

  energy without entropy =     -345.53149702  energy(sigma->0) =     -345.59792033


--------------------------------------------------------------------------------------------------------




--------------------------------------- Iteration      1(   5)  ---------------------------------------


     EDDAV:  cpu time  179.4157: real time  180.6922
       DOS:  cpu time    0.0420: real time    0.0448
    CHARGE:  cpu time    2.8136: real time    2.8299
    MIXING:  cpu time    0.0040: real time    0.0080
    --------------------------------------------
      LOOP:  cpu time  182.2753: real time  183.5743

 eigenvalue-minimisations  : 60048
 total energy-change (2. order) :-0.8265899E+00  (-0.8247386E+00)
 number of electron     337.0000284 magnetization 
 augmentation part      122.2315371 magnetization 

 Broyden mixing:
  rms(total) = 0.62076E+01    rms(broyden)= 0.62075E+01
  rms(prec ) = 0.75237E+01
  weight for this iteration     100.00

 Free energy of the ion-electron system (eV)
  ---------------------------------------------------
  alpha Z        PSCENC =      1678.69604450
  Ewald energy   TEWEN  =    -22973.84953592
  -Hartree energ DENC   =     -6540.78385251
  -exchange      EXHF   =         0.00000000
  -V(xc)+E(xc)   XCENC  =       228.14470429
  PAW double counting   =     23474.76194546   -24095.12296225
  entropy T*S    EENTRO =        -0.09967594
  eigenvalues    EBANDS =      2113.56888375
  atomic energy  EATOM  =     25768.22672671
  Solvation  Ediel_sol  =         0.00000000
  ---------------------------------------------------
  free energy    TOTEN  =      -346.45772190 eV

  energy without entropy =     -346.35804596  energy(sigma->0) =     -346.42449658


--------------------------------------------------------------------------------------------------------




--------------------------------------- Iteration      1(   6)  ---------------------------------------


    POTLOK:  cpu time    0.0720: real time    0.0797
    SETDIJ:  cpu time    0.0170: real time    0.0217
     EDDAV:  cpu time  198.5388: real time  200.0210
       DOS:  cpu time    0.0440: real time    0.0487
    CHARGE:  cpu time    2.5816: real time    2.5912
    MIXING:  cpu time    0.0090: real time    0.0109
    --------------------------------------------
      LOOP:  cpu time  201.2624: real time  202.7731

 eigenvalue-minimisations  : 67328
 total energy-change (2. order) :-0.2766911E+01  (-0.1544042E+02)
 number of electron     337.0000334 magnetization 
 augmentation part      162.8090826 magnetization 

 Broyden mixing:
  rms(total) = 0.76019E+01    rms(broyden)= 0.76017E+01
  rms(prec ) = 0.10386E+02
  weight for this iteration     100.00

 eigenvalues of (default mixing * dielectric matrix)
  average eigenvalue GAMMA=   0.4290
  0.4290

 Free energy of the ion-electron system (eV)
  ---------------------------------------------------
  alpha Z        PSCENC =      1678.69604450
[...]
    346      25.6135      0.00000
    347      25.7741      0.00000
    348      25.7783      0.00000
    349      25.7783      0.00000
    350      26.0541      0.00000
    351      26.0541      0.00000
    352      26.0614      0.00000
    353      26.2386      0.00000
    354      26.2386      0.00000
    355      26.2468      0.00000
    356      26.3094      0.00000
    357      26.4048      0.00000
    358      26.4079      0.00000
    359      26.4079      0.00000
    360      26.8224      0.00000


--------------------------------------------------------------------------------------------------------


 soft charge-density along one line, spin component           1
         0         1         2         3         4         5         6         7         8         9
 total charge-density along one line
 
 pseudopotential strength for first ion, spin component:           1
 -1.182   0.004  -0.001   0.003   0.001  -1.838   0.003  -0.001
  0.004  -1.171   0.001   0.001  -0.001   0.003  -1.827   0.001
 -0.001   0.001  -1.186   0.002  -0.000  -0.001   0.001  -1.842
  0.003   0.001   0.002  -1.170   0.004   0.003   0.001   0.002
  0.001  -0.001  -0.000   0.004  -1.183   0.001  -0.001  -0.000
 -1.838   0.003  -0.001   0.003   0.001  -2.423   0.003  -0.001
  0.003  -1.827   0.001   0.001  -0.001   0.003  -2.413   0.001
 -0.001   0.001  -1.842   0.002  -0.000  -0.001   0.001  -2.427
  0.003   0.001   0.002  -1.826   0.003   0.003   0.001   0.002
  0.001  -0.001  -0.000   0.003  -1.839   0.001  -0.001  -0.000
 -0.000  -0.000  -0.002  -0.001  -0.000  -0.000  -0.000  -0.002
 -0.000  -0.001  -0.003  -0.001  -0.000  -0.000  -0.001  -0.003
 -0.000  -0.000  -0.000  -0.000  -0.002  -0.000  -0.000  -0.000
 -0.000  -0.000  -0.000  -0.000  -0.000  -0.000  -0.000  -0.000
 -0.002  -0.000  -0.000  -0.000  -0.000  -0.002  -0.000  -0.000
 -0.000  -0.000  -0.000  -0.000  -0.001  -0.000  -0.000  -0.000
 -0.000  -0.000  -0.000  -0.000  -0.000  -0.000  -0.000  -0.000
 -0.001  -0.000  -0.000  -0.001  -0.000  -0.001  -0.000  -0.000
 total augmentation occupancy for first ion, spin component:           1
  2.782   0.015   0.005   0.056   0.037  -1.433  -0.009  -0.005  -0.038  -0.026   0.008   0.001   0.002  -0.004   0.107  -0.000
  0.015   2.417  -0.007   0.022   0.039  -0.009  -0.897   0.006  -0.014  -0.028   0.002  -0.000  -0.001  -0.001  -0.006  -0.000
  0.005  -0.007   3.280  -0.013   0.003  -0.005   0.006  -1.894   0.011  -0.003   0.394  -0.014  -0.002   0.008  -0.003   0.000
  0.056   0.022  -0.013   2.442   0.015  -0.038  -0.014   0.011  -0.913  -0.009   0.004  -0.000  -0.006  -0.002  -0.008   0.000
  0.037   0.039   0.003   0.015   2.739  -0.026  -0.027  -0.003  -0.009  -1.403   0.005   0.000   0.105  -0.002   0.002  -0.043
 -1.433  -0.009  -0.005  -0.038  -0.026   1.871   0.005   0.005   0.025   0.018  -0.009  -0.000  -0.003   0.001  -0.116   0.000
 -0.009  -0.897   0.006  -0.014  -0.027   0.005   1.164  -0.005   0.008   0.019  -0.004   0.000  -0.001  -0.000   0.003   0.000
 -0.005   0.006  -1.894   0.011  -0.003   0.005  -0.005   2.296  -0.009   0.003  -0.363   0.028   0.002  -0.005   0.003  -0.000
 -0.038  -0.014   0.011  -0.913  -0.009   0.025   0.008  -0.009   1.173   0.005  -0.007   0.001   0.003  -0.001   0.002  -0.000
 -0.026  -0.028  -0.003  -0.009  -1.403   0.018   0.019   0.003   0.005   1.851  -0.005  -0.000  -0.113   0.001  -0.003   0.036
  0.008   0.002   0.394   0.004   0.005  -0.009  -0.004  -0.363  -0.007  -0.005   2.494  -0.426  -0.003  -0.003  -0.005   0.000
  0.001  -0.000  -0.014  -0.000   0.000  -0.000   0.000   0.028   0.001  -0.000  -0.426   0.091   0.000   0.000   0.000  -0.000
  0.002  -0.001  -0.002  -0.006   0.105  -0.003  -0.001   0.002   0.003  -0.113  -0.003   0.000   0.378  -0.001  -0.002  -0.045
 -0.004  -0.001   0.008  -0.002  -0.002   0.001  -0.000  -0.005  -0.001   0.001  -0.003   0.000  -0.001   0.311  -0.001   0.000
  0.107  -0.006  -0.003  -0.008   0.002  -0.116   0.003   0.003   0.002  -0.003  -0.005   0.000  -0.002  -0.001   0.376   0.000
 -0.000  -0.000   0.000   0.000  -0.043   0.000   0.000  -0.000  -0.000   0.036   0.000  -0.000  -0.045   0.000   0.000   0.007
  0.000   0.000  -0.000   0.000   0.000  -0.000   0.000   0.000   0.000  -0.000   0.000  -0.000  -0.000  -0.039  -0.000   0.000
 -0.043   0.000   0.000   0.000  -0.000   0.036  -0.000  -0.000  -0.000   0.000   0.000  -0.000   0.000   0.000  -0.045   0.000


------------------------ aborting loop because EDIFF is reached ----------------------------------------


    CHARGE:  cpu time    2.6686: real time    2.6842
    FORLOC:  cpu time    0.0210: real time    0.0210
    FORNL :  cpu time   52.6790: real time   52.8449
    STRESS:  cpu time   91.4581: real time   91.8103
    FORCOR:  cpu time    0.1050: real time    0.1166
    FORHAR:  cpu time    0.0330: real time    0.0334
    MIXING:  cpu time    0.0070: real time    0.0081
    OFIELD:  cpu time    0.0010: real time    0.0009

  FORCE on cell =-STRESS in cart. coord.  units (eV):
  Direction    XX          YY          ZZ          XY          YZ          ZX
  --------------------------------------------------------------------------------------
  Alpha Z  1680.34194  1680.34194  1680.34194
  Ewald   -7552.71999 -7552.71999 -7876.01137    -0.00001     0.00000     0.00000
  Hartree  2050.75380  2050.75379  1943.54569    -0.00000     0.00000    -0.00000
  E(xc)   -1646.61839 -1646.61840 -1642.64714    -0.00000     0.00000    -0.00000
  Local    -498.38826  -498.38960   -77.12891    -0.00115    -0.00000     0.00000
  n-local  -260.90623  -258.18936  -230.78752    -1.28146    -0.17879    -1.07915
  augment  3309.24357  3309.24444  3300.54877     0.00075     0.00000    -0.00000
  Kinetic  2916.47459  2917.59023  2902.27612    -2.61871     0.14754     0.29288
  Fock        0.00000     0.00000     0.00000     0.00000     0.00000     0.00000
  -------------------------------------------------------------------------------------
  Total       0.09703     0.09703     0.13759     0.00000    -0.00000     0.00000
  in kB       0.27200     0.27200     0.38569     0.00000    -0.00000     0.00000
  external pressure =        0.31 kB  Pullay stress =        0.00 kB


 VOLUME and BASIS-vectors are now :
 -----------------------------------------------------------------------------
  energy-cutoff  :      450.00
  volume of cell :      571.57
      direct lattice vectors                 reciprocal lattice vectors
     8.130228106 -0.000000000  0.000000000     0.122997779  0.071012801 -0.000000000
    -4.065114053  7.040984078  0.000000000     0.000000000  0.142025602 -0.000000000
     0.000000000  0.000000000  9.984581369    -0.000000000 -0.000000000  0.100154424

  length of vectors
     8.130228106  8.130228106  9.984581369     0.142025602  0.142025602  0.100154424


 FORCES acting on ions
    electron-ion (+dipol)            ewald-force                    non-local-force                 convergence-correction
 -----------------------------------------------------------------------------------------------
   0.127E+02 0.731E+01 0.964E+01   -.127E+02 -.733E+01 -.965E+01   0.995E-01 0.575E-01 0.369E-01   0.108E-01 0.624E-02 -.137E-01
   -.127E+02 -.731E+01 -.964E+01   0.127E+02 0.733E+01 0.965E+01   -.995E-01 -.575E-01 -.369E-01   -.108E-01 -.624E-02 0.137E-01
   -.127E+02 0.731E+01 0.964E+01   0.127E+02 -.733E+01 -.965E+01   -.995E-01 0.575E-01 0.369E-01   -.108E-01 0.624E-02 -.137E-01
   0.127E+02 -.731E+01 -.964E+01   -.127E+02 0.733E+01 0.965E+01   0.995E-01 -.575E-01 -.369E-01   0.108E-01 -.624E-02 0.137E-01
   0.252E-05 -.146E+02 0.964E+01   0.112E-05 0.147E+02 -.965E+01   -.173E-17 -.115E+00 0.369E-01   -.989E-08 -.125E-01 -.137E-01
   -.286E-05 0.146E+02 -.964E+01   -.680E-06 -.147E+02 0.965E+01   0.173E-17 0.115E+00 -.369E-01   0.985E-08 0.125E-01 0.137E-01
   -.274E-05 0.211E+01 0.432E+01   -.680E-06 -.214E+01 -.430E+01   -.759E-18 0.157E-01 -.500E-02   0.153E-07 0.732E-02 -.180E-01
   0.881E-06 -.211E+01 -.432E+01   -.894E-05 0.214E+01 0.430E+01   0.976E-18 -.157E-01 0.500E-02   -.155E-07 -.732E-02 0.180E-01
   -.183E+01 -.105E+01 0.432E+01   0.185E+01 0.107E+01 -.430E+01   -.136E-01 -.784E-02 -.500E-02   -.634E-02 -.366E-02 -.180E-01
   0.183E+01 0.105E+01 -.432E+01   -.185E+01 -.107E+01 0.430E+01   0.136E-01 0.784E-02 0.500E-02   0.634E-02 0.366E-02 0.180E-01
   0.183E+01 -.105E+01 0.432E+01   -.185E+01 0.107E+01 -.430E+01   0.136E-01 -.784E-02 -.500E-02   0.634E-02 -.366E-02 -.180E-01
   -.183E+01 0.105E+01 -.432E+01   0.185E+01 -.107E+01 0.430E+01   -.136E-01 0.784E-02 0.500E-02   -.634E-02 0.366E-02 0.180E-01
   -.273E-05 0.136E-05 0.273E+01   -.680E-06 0.227E-05 -.267E+01   0.217E-18 -.141E-17 -.511E-01   0.122E-07 -.942E-08 -.180E-01
   0.869E-06 -.316E-05 -.273E+01   -.894E-05 -.933E-05 0.267E+01   0.141E-17 0.141E-17 0.511E-01   -.125E-07 0.819E-08 0.180E-01
   0.236E-05 -.179E-05 0.324E+01   0.116E-05 -.152E-06 -.327E+01   0.117E-17 0.434E-18 0.580E-01   -.153E-07 0.972E-08 -.201E-01
   -.274E-05 0.134E-05 -.324E+01   -.680E-06 0.228E-05 0.327E+01   -.732E-18 -.434E-18 -.580E-01   0.152E-07 -.111E-07 0.201E-01
   0.718E+00 0.415E+00 0.173E+01   -.740E+00 -.427E+00 -.172E+01   0.117E-01 0.674E-02 -.155E-02   0.264E-02 0.152E-02 -.749E-02
   -.718E+00 -.415E+00 -.173E+01   0.740E+00 0.427E+00 0.172E+01   -.117E-01 -.674E-02 0.155E-02   -.264E-02 -.152E-02 0.749E-02
   -.718E+00 0.415E+00 0.173E+01   0.740E+00 -.427E+00 -.172E+01   -.117E-01 0.674E-02 -.155E-02   -.264E-02 0.152E-02 -.749E-02
   0.718E+00 -.415E+00 -.173E+01   -.740E+00 0.427E+00 0.172E+01   0.117E-01 -.674E-02 0.155E-02   0.264E-02 -.152E-02 0.749E-02
   -.759E-06 -.829E+00 0.173E+01   0.327E-06 0.854E+00 -.172E+01   -.434E-18 -.135E-01 -.155E-02   -.933E-08 -.305E-02 -.749E-02
   0.750E-06 0.829E+00 -.173E+01   -.625E-06 -.854E+00 0.172E+01   0.434E-18 0.135E-01 0.155E-02   0.933E-08 0.305E-02 0.749E-02
   0.786E-06 0.580E+01 0.382E+01   -.433E-06 -.587E+01 -.386E+01   0.343E-22 0.115E+00 0.764E-01   0.102E-07 0.227E-02 -.607E-02
   -.759E-06 -.580E+01 -.382E+01   0.318E-06 0.587E+01 0.386E+01   -.173E-17 -.115E+00 -.764E-01   -.102E-07 -.227E-02 0.607E-02
   -.503E+01 -.290E+01 0.382E+01   0.508E+01 0.293E+01 -.386E+01   -.994E-01 -.574E-01 0.764E-01   -.196E-02 -.113E-02 -.607E-02
   0.503E+01 0.290E+01 -.382E+01   -.508E+01 -.293E+01 0.386E+01   0.994E-01 0.574E-01 -.764E-01   0.196E-02 0.113E-02 0.607E-02
   0.503E+01 -.290E+01 0.382E+01   -.508E+01 0.293E+01 -.386E+01   0.994E-01 -.574E-01 0.764E-01   0.196E-02 -.113E-02 -.607E-02
   -.503E+01 0.290E+01 -.382E+01   0.508E+01 -.293E+01 0.386E+01   -.994E-01 0.574E-01 -.764E-01   -.196E-02 0.113E-02 0.607E-02
   0.778E-06 -.353E-06 0.129E+01   -.433E-06 0.683E-06 -.131E+01   0.217E-17 0.000E+00 -.569E-02   0.589E-08 -.403E-08 -.552E-02
   -.764E-06 0.406E-06 -.129E+01   0.332E-06 -.655E-06 0.131E+01   -.130E-17 0.000E+00 0.569E-02   -.589E-08 0.377E-08 0.552E-02
   -.762E-06 0.408E-06 0.108E+01   0.329E-06 -.657E-06 -.107E+01   0.434E-18 0.000E+00 0.539E-02   -.566E-08 0.362E-08 -.494E-02
   0.751E-06 -.190E-06 -.108E+01   -.625E-06 0.175E-05 0.107E+01   -.130E-17 0.000E+00 -.539E-02   0.565E-08 -.408E-08 0.494E-02
   0.589E-06 0.309E-06 0.116E-10   0.233E-05 -.770E-06 -.911E-13   -.132E-22 0.000E+00 0.000E+00   -.139E-08 -.385E-11 -.862E-13
   -.311E-06 0.829E-06 -.534E-06   -.376E-05 0.274E-05 -.360E-05   -.717E-28 0.000E+00 0.000E+00   -.332E-10 -.782E-09 0.147E-09
   0.951E-08 0.309E-06 -.139E-10   -.158E-05 -.770E-06 0.830E-13   -.662E-23 0.000E+00 0.000E+00   0.140E-08 -.112E-11 -.154E-11
   -.915E-02 0.528E-02 0.337E+01   -.556E-07 -.770E-06 -.335E+01   -.826E-02 0.477E-02 -.643E-03   0.246E-02 -.142E-02 -.175E-01
   0.915E-02 -.528E-02 -.337E+01   0.233E-05 -.770E-06 0.335E+01   0.826E-02 -.477E-02 0.643E-03   -.246E-02 0.142E-02 0.175E-01
   0.164E-06 -.106E-01 0.337E+01   -.536E-06 -.493E-06 -.335E+01   0.108E-18 -.954E-02 -.643E-03   -.483E-09 0.285E-02 -.175E-01
   -.311E-06 0.106E-01 -.337E+01   -.376E-05 0.274E-05 0.335E+01   0.108E-18 0.954E-02 0.643E-03   0.443E-09 -.285E-02 0.175E-01
   0.915E-02 0.528E-02 0.337E+01   -.747E-06 -.770E-06 -.335E+01   0.826E-02 0.477E-02 -.643E-03   -.246E-02 -.142E-02 -.175E-01
   -.915E-02 -.528E-02 -.337E+01   -.158E-05 -.770E-06 0.335E+01   -.826E-02 -.477E-02 0.643E-03   0.246E-02 0.142E-02 0.175E-01
   -.311E-06 -.211E-06 0.534E-06   -.376E-05 -.428E-05 0.360E-05   -.591E-27 0.000E+00 0.000E+00   -.304E-10 0.785E-09 -.146E-09
   0.152E-06 0.253E-06 0.152E+02   -.536E-06 -.105E-05 -.153E+02   0.867E-18 -.434E-18 -.129E+00   -.124E-08 0.139E-08 -.149E-01
   -.298E-06 -.196E-06 -.152E+02   -.376E-05 -.428E-05 0.153E+02   -.217E-18 0.434E-18 0.129E+00   0.121E-08 0.691E-10 0.149E-01
   0.236E-06 0.309E-06 -.198E-11   -.556E-07 -.770E-06 0.462E-13   0.186E-23 0.000E+00 0.000E+00   -.116E-08 -.112E-10 0.278E-12
   0.165E-06 0.350E-06 0.885E-07   -.536E-06 -.493E-06 0.598E-06   -.748E-29 0.000E+00 0.000E+00   -.604E-11 -.646E-09 -.188E-09
   0.133E-06 0.309E-06 -.610E-10   -.747E-06 -.770E-06 0.426E-13   0.414E-23 0.000E+00 0.000E+00   0.118E-08 0.523E-11 0.162E-10
   0.188E-06 0.306E-06 -.101E-06   -.613E-06 -.120E-05 -.683E-06   0.968E-28 0.000E+00 0.000E+00   0.441E-11 0.786E-09 0.204E-09
 -----------------------------------------------------------------------------------------------
   -.615E-05 0.113E-05 -.990E-07   -.137E-12 0.729E-13 -.639E-13   0.111E-16 -.373E-16 0.000E+00   -.110E-08 -.127E-08 0.124E-09
 
 
 POSITION                                       TOTAL-FORCE (eV/Angst)
 -----------------------------------------------------------------------------------
      2.03256      5.86749      3.74422         0.072850      0.042060      0.016903
      2.03256      1.17350      6.24036        -0.072850     -0.042060     -0.016903
     -2.03256      5.86749      3.74422        -0.072850      0.042060      0.016903
      6.09767      1.17350      6.24036         0.072850     -0.042060     -0.016903
     -0.00000      2.34699      3.74422        -0.000000     -0.084120      0.016903
      4.06511      4.69399      6.24036        -0.000000      0.084120     -0.016903
      4.06511      4.69399      1.24807        -0.000000     -0.004448     -0.003386
     -0.00000      2.34699      8.73651        -0.000000      0.004448      0.003386
      2.03256      1.17350      1.24807         0.003852      0.002224     -0.003386
      2.03256      5.86749      8.73651        -0.003852     -0.002224      0.003386
      6.09767      1.17350      1.24807        -0.003852      0.002224     -0.003386
     -2.03256      5.86749      8.73651         0.003852     -0.002224      0.003386
      0.00000      4.69399      1.24807        -0.000000     -0.000000     -0.006221
      4.06511      2.34699      8.73651        -0.000000     -0.000000      0.006221
      4.06511      2.34699      3.74422        -0.000000     -0.000000      0.003639
      0.00000      4.69399      6.24036        -0.000000     -0.000000     -0.003639
      2.03256      5.86749      1.24807        -0.007238     -0.004179      0.003192
      2.03256      1.17350      8.73651         0.007238      0.004179     -0.003192
     -2.03256      5.86749      1.24807         0.007238     -0.004179      0.003192
      6.09767      1.17350      8.73651        -0.007238      0.004179     -0.003192
     -0.00000      2.34699      1.24807        -0.000000      0.008357      0.003192
      4.06511      4.69399      8.73651        -0.000000     -0.008357     -0.003192
      4.06511      4.69399      3.74422        -0.000000      0.054671      0.031308
     -0.00000      2.34699      6.24036        -0.000000     -0.054671     -0.031308
      2.03256      1.17350      3.74422        -0.047347     -0.027336      0.031308
      2.03256      5.86749      6.24036         0.047347      0.027336     -0.031308
      6.09767      1.17350      3.74422         0.047347     -0.027336      0.031308
     -2.03256      5.86749      6.24036        -0.047347      0.027336     -0.031308
      0.00000      4.69399      3.74422        -0.000000     -0.000000     -0.029191
      4.06511      2.34699      6.24036        -0.000000     -0.000000      0.029191
      4.06511      2.34699      1.24807        -0.000000     -0.000000      0.012534
      0.00000      4.69399      8.73651        -0.000000     -0.000000     -0.012534
      2.03256      3.52049      0.00000        -0.000000     -0.000000      0.000000
      4.06511     -0.00000      0.00000        -0.000000     -0.000000      0.000000
     -2.03256      3.52049      0.00000        -0.000000     -0.000000      0.000000
      2.03256      3.52049      2.49615        -0.014946      0.008629      0.005963
      2.03256      3.52049      7.48844         0.014946     -0.008629     -0.005963
      4.06511     -0.00000      2.49615        -0.000000     -0.017259      0.005963
      4.06511     -0.00000      7.48844        -0.000000      0.017259     -0.005963
     -2.03256      3.52049      2.49615         0.014946      0.008629      0.005963
     -2.03256      3.52049      7.48844        -0.014946     -0.008629     -0.005963
      0.00000      0.00000      0.00000        -0.000000     -0.000000      0.000000
      0.00000      0.00000      2.49615        -0.000000     -0.000000     -0.259008
      0.00000      0.00000      7.48844        -0.000000     -0.000000      0.259008
      2.03256      3.52049      4.99229        -0.000000     -0.000000      0.000000
      4.06511     -0.00000      4.99229        -0.000000     -0.000000      0.000000
     -2.03256      3.52049      4.99229        -0.000000     -0.000000      0.000000
      0.00000      0.00000      4.99229        -0.000000     -0.000000      0.000000
 -----------------------------------------------------------------------------------
    total drift:                               -0.000006      0.000001     -0.000000


--------------------------------------------------------------------------------------------------------



  FREE ENERGIE OF THE ION-ELECTRON SYSTEM (eV)
  ---------------------------------------------------
  free  energy   TOTEN  =      -304.90782240 eV

  energy  without entropy=     -304.81027010  energy(sigma->0) =     -304.87530497
 
 d Force = 0.0000000E+00[ 0.000E+00, 0.000E+00]  d Energy = 0.6508870E-03-0.651E-03
 d Force = 0.0000000E+00[ 0.000E+00, 0.000E+00]  d Ewald  =-0.1103258E+02 0.110E+02


--------------------------------------------------------------------------------------------------------


    POTLOK:  cpu time    0.0900: real time    0.1005


--------------------------------------------------------------------------------------------------------




--------------------------------------------------------------------------------------------------------


  
 reached required accuracy - stopping structural energy minimisation
 writing wavefunctions
     LOOP+:  cpu time 2593.3647: real time 2613.3327
    4ORBIT:  cpu time    0.0000: real time    0.0000

 total amount of memory used by VASP MPI-rank0   346771. kBytes
=======================================================================

   base      :      30000. kBytes
   nonl-proj :      84589. kBytes
   fftplans  :       3798. kBytes
   grid      :       7284. kBytes
   one-center:        124. kBytes
   wavefun   :     220976. kBytes
 
  
  
 General timing and accounting informations for this job:
 ========================================================
  
                  Total CPU time used (sec):    10909.034
                            User time (sec):    10831.848
                          System time (sec):       77.186
                         Elapsed time (sec):    10991.639
  
                   Maximum memory used (kb):      429524.
                   Average memory used (kb):           0.
  
                          Minor page faults:      1562856
                          Major page faults:            6
                 Voluntary context switches:       733253
