 running on   24 total cores
 distrk:  each k-point on   24 cores,    1 groups
 distr:  one band on    6 cores,    4 groups
 using from now: INCAR     
 vasp.6.1.1 19Jun20 (build Nov 30 2020 11:51:22) complex                        
  
 POSCAR found type information on POSCAR NiGeMnFe
 POSCAR found :  4 types and      48 ions
 scaLAPACK will be used
 -----------------------------------------------------------------------------
|                                                                             |
|               ----> ADVICE to this user running VASP <----                  |
|                                                                             |
|     You have a (more or less) 'large supercell' and for larger cells it     |
|     might be more efficient to use real-space projection operators.         |
|     Therefore, try LREAL= Auto in the INCAR file.                           |
|     Mind: For very accurate calculation, you might also keep the            |
|     reciprocal projection scheme (i.e. LREAL=.FALSE.).                      |
|                                                                             |
 -----------------------------------------------------------------------------

 LDA part: xc-table for Pade appr. of Perdew
 POSCAR, INCAR and KPOINTS ok, starting setup
 FFT: planning ...
 WAVECAR not read
 entering main loop
       N       E                     dE             d eps       ncg     rms          rms(c)
DAV:   1     0.286644140671E+04    0.28664E+04   -0.10776E+05 99360   0.106E+03
DAV:   2     0.192423880297E+03   -0.26740E+04   -0.23809E+04 99360   0.270E+02
DAV:   3    -0.258817095053E+03   -0.45124E+03   -0.37171E+03 99488   0.126E+02
DAV:   4    -0.291714091444E+03   -0.32897E+02   -0.31437E+02121504   0.404E+01
DAV:   5    -0.292560651095E+03   -0.84656E+00   -0.84460E+00122120   0.670E+00    0.105E+02
DAV:   6    -0.368392532795E+03   -0.75832E+02   -0.20694E+02125152   0.102E+02    0.107E+02
DAV:   7    -0.319975255862E+03    0.48417E+02   -0.18600E+02121752   0.974E+01    0.746E+01
DAV:   8    -0.331505724676E+03   -0.11530E+02   -0.36140E+01134984   0.608E+01    0.752E+01
DAV:   9    -0.316176964675E+03    0.15329E+02   -0.33052E+01140392   0.479E+01    0.451E+01
DAV:  10    -0.318998573827E+03   -0.28216E+01   -0.22760E+01134256   0.461E+01    0.553E+01
DAV:  11    -0.306765468912E+03    0.12233E+02   -0.15898E+01147064   0.311E+01    0.225E+01
DAV:  12    -0.312905526722E+03   -0.61401E+01   -0.71646E+00141552   0.222E+01    0.270E+01
DAV:  13    -0.310449429308E+03    0.24561E+01   -0.62531E+00142448   0.209E+01    0.125E+01
DAV:  14    -0.313645935872E+03   -0.31965E+01   -0.29143E+00161600   0.128E+01    0.219E+01
DAV:  15    -0.312440717927E+03    0.12052E+01   -0.27055E+00146136   0.126E+01    0.843E+00
DAV:  16    -0.312650131559E+03   -0.20941E+00   -0.87426E-01141352   0.835E+00    0.876E+00
DAV:  17    -0.312458759050E+03    0.19137E+00   -0.59838E-01132544   0.622E+00    0.436E+00
DAV:  18    -0.312628215918E+03   -0.16946E+00   -0.28261E-01141688   0.368E+00    0.534E+00
DAV:  19    -0.312589728430E+03    0.38487E-01   -0.13907E-01142920   0.322E+00    0.395E+00
DAV:  20    -0.312643640295E+03   -0.53912E-01   -0.51304E-02138872   0.174E+00    0.421E+00
DAV:  21    -0.312658193199E+03   -0.14553E-01   -0.49347E-02135712   0.194E+00    0.413E+00
DAV:  22    -0.312639696067E+03    0.18497E-01   -0.23886E-02154136   0.144E+00    0.316E+00
DAV:  23    -0.312609679064E+03    0.30017E-01   -0.26833E-02167408   0.109E+00    0.178E+00
DAV:  24    -0.312601387217E+03    0.82918E-02   -0.13618E-02148624   0.804E-01    0.122E+00
DAV:  25    -0.312597027944E+03    0.43593E-02   -0.56711E-03147768   0.329E-01    0.479E-01
DAV:  26    -0.312598238002E+03   -0.12101E-02   -0.24437E-03138320   0.432E-01    0.387E-01
DAV:  27    -0.312597932021E+03    0.30598E-03   -0.99317E-04129872   0.365E-01    0.221E-01
DAV:  28    -0.312597868893E+03    0.63129E-04   -0.37939E-04152232   0.125E-01    0.901E-02
DAV:  29    -0.312597887566E+03   -0.18673E-04   -0.18863E-04137128   0.558E-02    0.493E-02
DAV:  30    -0.312597893216E+03   -0.56497E-05   -0.96256E-05118000   0.410E-02    0.363E-02
DAV:  31    -0.312597891114E+03    0.21014E-05   -0.87131E-06109136   0.149E-02    0.299E-02
DAV:  32    -0.312597892572E+03   -0.14579E-05   -0.23118E-06 73504   0.103E-02    0.203E-02
DAV:  33    -0.312597891674E+03    0.89789E-06   -0.18342E-06 63936   0.568E-03
   1 F= -.31259789E+03 E0= -.31259540E+03  d E =-.746954E-02  mag=    43.3381
