 vasp.6.1.1 19Jun20 (build Nov 30 2020 11:51:22) complex                        
  
 executed on             LinuxIFC date 2021.03.25  22:16:44
 running on   24 total cores
 distrk:  each k-point on   24 cores,    1 groups
 distr:  one band on NCORE=   6 cores,    4 groups


--------------------------------------------------------------------------------------------------------


 INCAR:
 POTCAR:    PAW_PBE Ni 02Aug2007                  
 POTCAR:    PAW_PBE Ge 05Jan2001                  
 POTCAR:    PAW_PBE Mn 06Sep2000                  
 POTCAR:    PAW_PBE Fe 06Sep2000                  
 POTCAR:    PAW_PBE Ni 02Aug2007                  
   SHA256 =  0534bc51ca8003dfef23f56753fef9fdd3e22eac8d719fccacb59f3e6b7a69c7 Ni/POTCAR             
   COPYR  = (c) Copyright 02Aug2007 Georg Kresse                                                    
   COPYR  = This file is part of the software VASP. Any use, copying, and all other rights are regul
   COPYR  = If you do not have a valid VASP license, you may not use, copy or distribute this file. 
   VRHFIN =Ni:                                                                                      
   LEXCH  = PE                                                                                      
   EATOM  =  1077.6739 eV,   79.2068 Ry                                                             
                                                                                                    
   TITEL  = PAW_PBE Ni 02Aug2007                                                                    
   LULTRA =        F    use ultrasoft PP ?                                                          
   IUNSCR =        1    unscreen: 0-lin 1-nonlin 2-no                                               
   RPACOR =    2.000    partial core radius                                                         
   POMASS =   58.690; ZVAL   =   10.000    mass and valenz                                          
   RCORE  =    2.300    outmost cutoff radius                                                       
   RWIGS  =    2.430; RWIGS  =    1.286    wigner-seitz radius (au A)                               
   ENMAX  =  269.532; ENMIN  =  202.149 eV                                                          
   RCLOC  =    1.201    cutoff for local pot                                                        
   LCOR   =        T    correct aug charges                                                         
   LPAW   =        T    paw PP                                                                      
   EAUG   =  544.565                                                                                
   DEXC   =    0.000                                                                                
   RMAX   =    2.357    core radius for proj-oper                                                   
   RAUG   =    1.300    factor for augmentation sphere                                              
   RDEP   =    2.390    radius for radial grids                                                     
   RDEPT  =    1.838    core radius for aug-charge                                                  
                                                                                                    
   Atomic configuration                                                                             
    9 entries                                                                                       
     n  l   j            E        occ.                                                              
     1  0  0.50     -8206.4253   2.0000                                                             
     2  0  0.50      -976.1748   2.0000                                                             
     2  1  1.50      -839.0571   6.0000                                                             
     3  0  0.50      -105.9991   2.0000                                                             
     3  1  1.50       -66.4603   6.0000                                                             
     3  2  2.50        -4.6458   9.0000                                                             
     4  0  0.50        -4.4926   1.0000                                                             
     4  1  1.50        -4.0817   0.0000                                                             
     4  3  2.50        -1.3606   0.0000                                                             
   Description                                                                                      
     l       E           TYP  RCUT    TYP  RCUT                                                     
     2     -4.6457903     23  2.300                                                                 
     2     -6.0063729     23  2.300                                                                 
     0     -4.4925590     23  2.300                                                                 
     0      5.0102601     23  2.300                                                                 
     1     -2.7211652     23  2.300                                                                 
     1     16.5183231     23  2.300                                                                 
  local pseudopotential read in
  partial core-charges read in
  partial kinetic energy density read in
  atomic valenz-charges read in
  non local Contribution for L=           2  read in
    real space projection operators read in
  non local Contribution for L=           2  read in
    real space projection operators read in
  non local Contribution for L=           0  read in
    real space projection operators read in
  non local Contribution for L=           0  read in
    real space projection operators read in
  non local Contribution for L=           1  read in
    real space projection operators read in
  non local Contribution for L=           1  read in
    real space projection operators read in
    PAW grid and wavefunctions read in
 
   number of l-projection  operators is LMAX  =           6
   number of lm-projection operators is LMMAX =          18
 
 POTCAR:    PAW_PBE Ge 05Jan2001                  
   SHA256 =  7ff11deedcda39f1950abeda971a84a1f98a719a97bc9679a0df455c008734f8 Ge/POTCAR             
   COPYR  = (c) Copyright 05Jan2001 Georg Kresse                                                    
   COPYR  = This file is part of the software VASP. Any use, copying, and all other rights are regul
   COPYR  = If you do not have a valid VASP license, you may not use, copy or distribute this file. 
   VRHFIN =Ge: s2p2                                                                                 
   LEXCH  = PE                                                                                      
   EATOM  =   104.9960 eV,    7.7170 Ry                                                             
                                                                                                    
   TITEL  = PAW_PBE Ge 05Jan2001                                                                    
   LULTRA =        F    use ultrasoft PP ?                                                          
   IUNSCR =        1    unscreen: 0-lin 1-nonlin 2-no                                               
   RPACOR =    2.170    partial core radius                                                         
   POMASS =   72.610; ZVAL   =    4.000    mass and valenz                                          
   RCORE  =    2.300    outmost cutoff radius                                                       
   RWIGS  =    2.300; RWIGS  =    1.217    wigner-seitz radius (au A)                               
   ENMAX  =  173.807; ENMIN  =  130.355 eV                                                          
   ICORE  =        3    local potential                                                             
   LCOR   =        T    correct aug charges                                                         
   LPAW   =        T    paw PP                                                                      
   EAUG   =  385.843                                                                                
   DEXC   =    0.000                                                                                
   RMAX   =    2.342    core radius for proj-oper                                                   
   RAUG   =    1.300    factor for augmentation sphere                                              
   RDEP   =    2.318    radius for radial grids                                                     
   RDEPT  =    2.103    core radius for aug-charge                                                  
                                                                                                    
   Atomic configuration                                                                             
   10 entries                                                                                       
     n  l   j            E        occ.                                                              
     1  0  0.50    -10959.8463   2.0000                                                             
     2  0  0.50     -1371.6056   2.0000                                                             
     2  1  1.50     -1198.4791   6.0000                                                             
     3  0  0.50      -168.4733   2.0000                                                             
     3  1  1.50      -115.6019   6.0000                                                             
     3  2  2.50       -29.3106  10.0000                                                             
     4  0  0.50       -11.7309   2.0000                                                             
     4  1  0.50        -3.8952   2.0000                                                             
     4  2  1.50        -4.0817   0.0000                                                             
     4  3  2.50        -4.0817   0.0000                                                             
   Description                                                                                      
     l       E           TYP  RCUT    TYP  RCUT                                                     
     0    -11.7309493     23  2.300                                                                 
     0     -7.4578696     23  2.300                                                                 
     1     -3.8952261     23  2.300                                                                 
     1      6.1178114     23  2.300                                                                 
     2     -4.0817478     23  2.300                                                                 
     3     -1.3605826      7  2.300                                                                 
  local pseudopotential read in
  partial core-charges read in
  partial kinetic energy density read in
  atomic valenz-charges read in
  non local Contribution for L=           0  read in
    real space projection operators read in
  non local Contribution for L=           0  read in
    real space projection operators read in
  non local Contribution for L=           1  read in
    real space projection operators read in
  non local Contribution for L=           1  read in
    real space projection operators read in
  non local Contribution for L=           2  read in
    real space projection operators read in
    PAW grid and wavefunctions read in
 
   number of l-projection  operators is LMAX  =           5
   number of lm-projection operators is LMMAX =          13
 
 POTCAR:    PAW_PBE Mn 06Sep2000                  
   SHA256 =  791c87526310ff945dc83749a51ee60ee299d345ff72743aeb14609b9ed68bfc Mn/POTCAR             
   COPYR  = (c) Copyright 06Sep2000 Georg Kresse                                                    
   COPYR  = This file is part of the software VASP. Any use, copying, and all other rights are regul
   COPYR  = If you do not have a valid VASP license, you may not use, copy or distribute this file. 
   VRHFIN =Mn: d6 s1                                                                                
   LEXCH  = PE                                                                                      
   EATOM  =   416.7541 eV,   30.6306 Ry                                                             
                                                                                                    
   TITEL  = PAW_PBE Mn 06Sep2000                                                                    
   LULTRA =        F    use ultrasoft PP ?                                                          
   IUNSCR =        1    unscreen: 0-lin 1-nonlin 2-no                                               
   RPACOR =    2.000    partial core radius                                                         
   POMASS =   54.938; ZVAL   =    7.000    mass and valenz                                          
   RCORE  =    2.300    outmost cutoff radius                                                       
   RWIGS  =    2.500; RWIGS  =    1.323    wigner-seitz radius (au A)                               
   ENMAX  =  269.864; ENMIN  =  202.398 eV                                                          
   RCLOC  =    1.725    cutoff for local pot                                                        
   LCOR   =        T    correct aug charges                                                         
   LPAW   =        T    paw PP                                                                      
   EAUG   =  500.711                                                                                
   DEXC   =    0.000                                                                                
   RMAX   =    2.343    core radius for proj-oper                                                   
   RAUG   =    1.300    factor for augmentation sphere                                              
   RDEP   =    2.338    radius for radial grids                                                     
   RDEPT  =    1.911    core radius for aug-charge                                                  
                                                                                                    
   Atomic configuration                                                                             
    9 entries                                                                                       
     n  l   j            E        occ.                                                              
     1  0  0.50     -6424.8288   2.0000                                                             
     2  0  0.50      -739.1154   2.0000                                                             
     2  1  1.50      -625.3949   6.0000                                                             
     3  0  0.50       -81.6100   2.0000                                                             
     3  1  1.50       -50.4667   6.0000                                                             
     3  2  2.50        -3.3745   6.0000                                                             
     4  0  0.50        -4.1331   1.0000                                                             
     4  1  0.50        -4.0817   0.0000                                                             
     4  3  2.50        -1.3606   0.0000                                                             
   Description                                                                                      
     l       E           TYP  RCUT    TYP  RCUT                                                     
     2     -3.3744664     23  2.300                                                                 
     2     -4.7350490     23  2.300                                                                 
     0     -4.1331408     23  2.300                                                                 
     0      7.6656614     23  2.300                                                                 
     1     -2.7211652     23  2.300                                                                 
     1     20.4087390     23  2.300                                                                 
  local pseudopotential read in
  partial core-charges read in
  partial kinetic energy density read in
  atomic valenz-charges read in
  non local Contribution for L=           2  read in
    real space projection operators read in
  non local Contribution for L=           2  read in
    real space projection operators read in
  non local Contribution for L=           0  read in
    real space projection operators read in
  non local Contribution for L=           0  read in
    real space projection operators read in
  non local Contribution for L=           1  read in
    real space projection operators read in
  non local Contribution for L=           1  read in
    real space projection operators read in
    PAW grid and wavefunctions read in
 
   number of l-projection  operators is LMAX  =           6
   number of lm-projection operators is LMMAX =          18
 
 POTCAR:    PAW_PBE Fe 06Sep2000                  
   SHA256 =  cd5a22d9368cc8b5cc476bea79732366149640da08ac9009b0e1b7fc627eea28 Fe/POTCAR             
   COPYR  = (c) Copyright 06Sep2000 Georg Kresse                                                    
   COPYR  = This file is part of the software VASP. Any use, copying, and all other rights are regul
   COPYR  = If you do not have a valid VASP license, you may not use, copy or distribute this file. 
   VRHFIN =Fe:  d7 s1                                                                               
   LEXCH  = PE                                                                                      
   EATOM  =   594.3153 eV,   43.6809 Ry                                                             
                                                                                                    
   TITEL  = PAW_PBE Fe 06Sep2000                                                                    
   LULTRA =        F    use ultrasoft PP ?                                                          
   IUNSCR =        1    unscreen: 0-lin 1-nonlin 2-no                                               
   RPACOR =    2.000    partial core radius                                                         
   POMASS =   55.847; ZVAL   =    8.000    mass and valenz                                          
   RCORE  =    2.300    outmost cutoff radius                                                       
   RWIGS  =    2.460; RWIGS  =    1.302    wigner-seitz radius (au A)                               
   ENMAX  =  267.882; ENMIN  =  200.911 eV                                                          
   RCLOC  =    1.701    cutoff for local pot                                                        
   LCOR   =        T    correct aug charges                                                         
   LPAW   =        T    paw PP                                                                      
   EAUG   =  511.368                                                                                
   DEXC   =    0.000                                                                                
   RMAX   =    2.356    core radius for proj-oper                                                   
   RAUG   =    1.300    factor for augmentation sphere                                              
   RDEP   =    2.442    radius for radial grids                                                     
   RDEPT  =    1.890    core radius for aug-charge                                                  
                                                                                                    
   Atomic configuration                                                                             
    9 entries                                                                                       
     n  l   j            E        occ.                                                              
     1  0  0.50     -6993.8440   2.0000                                                             
     2  0  0.50      -814.6047   2.0000                                                             
     2  1  1.50      -693.3689   6.0000                                                             
     3  0  0.50       -89.4732   2.0000                                                             
     3  1  1.50       -55.6373   6.0000                                                             
     3  2  2.50        -3.8151   7.0000                                                             
     4  0  0.50        -4.2551   1.0000                                                             
     4  1  1.50        -3.4015   0.0000                                                             
     4  3  2.50        -1.3606   0.0000                                                             
   Description                                                                                      
     l       E           TYP  RCUT    TYP  RCUT                                                     
     2     -3.8151135     23  2.300                                                                 
     2     -5.1756961     23  2.300                                                                 
     0     -4.2550963     23  2.300                                                                 
     0      7.2035603     23  2.300                                                                 
     1     -2.7211652     23  2.300                                                                 
     1     18.4316424     23  2.300                                                                 
  local pseudopotential read in
  partial core-charges read in
  partial kinetic energy density read in
  atomic valenz-charges read in
  non local Contribution for L=           2  read in
    real space projection operators read in
  non local Contribution for L=           2  read in
    real space projection operators read in
  non local Contribution for L=           0  read in
    real space projection operators read in
  non local Contribution for L=           0  read in
    real space projection operators read in
  non local Contribution for L=           1  read in
    real space projection operators read in
  non local Contribution for L=           1  read in
    real space projection operators read in
    PAW grid and wavefunctions read in
 
   number of l-projection  operators is LMAX  =           6
   number of lm-projection operators is LMMAX =          18
 
 -----------------------------------------------------------------------------
|                                                                             |
|               ----> ADVICE to this user running VASP <----                  |
|                                                                             |
|     You have a (more or less) 'large supercell' and for larger cells it     |
|     might be more efficient to use real-space projection operators.         |
|     Therefore, try LREAL= Auto in the INCAR file.                           |
|     Mind: For very accurate calculation, you might also keep the            |
|     reciprocal projection scheme (i.e. LREAL=.FALSE.).                      |
|                                                                             |
 -----------------------------------------------------------------------------

  PAW_PBE Ni 02Aug2007                  :
 energy of atom  1       EATOM=-1077.6739
 kinetic energy error for atom=    0.0038 (will be added to EATOM!!)
  PAW_PBE Ge 05Jan2001                  :
 energy of atom  2       EATOM= -104.9960
 kinetic energy error for atom=    0.0003 (will be added to EATOM!!)
  PAW_PBE Mn 06Sep2000                  :
 energy of atom  3       EATOM= -416.7541
 kinetic energy error for atom=    0.0033 (will be added to EATOM!!)
  PAW_PBE Fe 06Sep2000                  :
 energy of atom  4       EATOM= -594.3153
 kinetic energy error for atom=    0.0034 (will be added to EATOM!!)
 
 
 POSCAR: MnFeNiGe_hex
  positions in direct lattice
  velocities in cartesian coordinates
 exchange correlation table for  LEXCH =        8
   RHO(1)=    0.500       N(1)  =     2000
   RHO(2)=  100.500       N(2)  =     4000
 


--------------------------------------------------------------------------------------------------------


 ion  position               nearest neighbor table
   1  0.667  0.833  0.375-  27 2.32  29 2.32  23 2.32  17 2.59  26 2.59  36 2.66  45 2.66  38 2.66
                            46 2.66  43 2.66  48 2.66
   2  0.333  0.167  0.625-  28 2.32  30 2.32  24 2.32  25 2.59  18 2.59  39 2.66  44 2.66  46 2.66
                            48 2.66  37 2.66  45 2.66
   3  0.167  0.833  0.375-  25 2.32  23 2.32  29 2.32  28 2.59  19 2.59  40 2.66  47 2.66  43 2.66
                            48 2.66  38 2.66  46 2.66
   4  0.833  0.167  0.625-  26 2.32  24 2.32  30 2.32  27 2.59  20 2.59  39 2.66  44 2.66  46 2.66
                            48 2.66  47 2.66  41 2.66
   5  0.167  0.333  0.375-  29 2.32  27 2.32  25 2.32  24 2.59  21 2.59  43 2.66  48 2.66  47 2.66
                            40 2.66  36 2.66  45 2.66
   6  0.833  0.667  0.625-  30 2.32  28 2.32  26 2.32  23 2.59  22 2.59  37 2.66  41 2.66  45 2.66
                            47 2.66  44 2.66  48 2.66
   7  0.833  0.667  0.125-  31 2.32  19 2.32  17 2.32  23 2.59  22 2.59  33 2.66  35 2.66  36 2.66
                            40 2.66  42 2.66  43 2.66
   8  0.167  0.333  0.875-  18 2.32  32 2.32  20 2.32  24 2.59  21 2.59  42 2.66  44 2.66  35 2.66
                            41 2.66  37 2.66  33 2.66
   9  0.333  0.167  0.125-  19 2.32  31 2.32  21 2.32  25 2.59  18 2.59  34 2.66  38 2.66  42 2.66
                            43 2.66  36 2.66  33 2.66
  10  0.667  0.833  0.875-  20 2.32  32 2.32  22 2.32  26 2.59  17 2.59  33 2.66  37 2.66  34 2.66
                            39 2.66  42 2.66  44 2.66
  11  0.833  0.167  0.125-  17 2.32  21 2.32  31 2.32  27 2.59  20 2.59  34 2.66  38 2.66  42 2.66
                            43 2.66  35 2.66  40 2.66
  12  0.167  0.833  0.875-  18 2.32  22 2.32  32 2.32  28 2.59  19 2.59  35 2.66  41 2.66  42 2.66
                            44 2.66  39 2.66  34 2.66
  13  0.333  0.667  0.125-  21 2.32  17 2.32  19 2.32  29 2.59  32 2.59  33 2.66  35 2.66  36 2.66
                            40 2.66  38 2.66  34 2.66
  14  0.667  0.333  0.875-  22 2.32  20 2.32  18 2.32  30 2.59  31 2.59  34 2.66  39 2.66  37 2.66
                            33 2.66  35 2.66  41 2.66
  15  0.667  0.333  0.375-  23 2.32  25 2.32  27 2.32  30 2.59  31 2.59  38 2.66  46 2.66  45 2.66
                            36 2.66  40 2.66  47 2.66
  16  0.333  0.667  0.625-  24 2.32  26 2.32  28 2.32  29 2.59  32 2.59  37 2.66  41 2.66  45 2.66
                            47 2.66  46 2.66  39 2.66
  17  0.667  0.833  0.125-  11 2.32  13 2.32   7 2.32   1 2.59  10 2.59  33 2.66  36 2.66  34 2.66
                            38 2.66  42 2.66  43 2.66
  18  0.333  0.167  0.875-   8 2.32  12 2.32  14 2.32   2 2.59   9 2.59  42 2.66  44 2.66  33 2.66
                            37 2.66  34 2.66  39 2.66
  19  0.167  0.833  0.125-   9 2.32   7 2.32  13 2.32  12 2.59   3 2.59  35 2.66  40 2.66  42 2.66
                            43 2.66  38 2.66  34 2.66
  20  0.833  0.167  0.875-  10 2.32   8 2.32  14 2.32  11 2.59   4 2.59  34 2.66  39 2.66  42 2.66
                            44 2.66  35 2.66  41 2.66
  21  0.167  0.333  0.125-  13 2.32  11 2.32   9 2.32   8 2.59   5 2.59  42 2.66  43 2.66  35 2.66
                            40 2.66  36 2.66  33 2.66
  22  0.833  0.667  0.875-  14 2.32  12 2.32  10 2.32   7 2.59   6 2.59  33 2.66  35 2.66  37 2.66
                            41 2.66  42 2.66  44 2.66
  23  0.833  0.667  0.375-  15 2.32   3 2.32   1 2.32   7 2.59   6 2.59  36 2.66  40 2.66  45 2.66
                            47 2.66  43 2.66  48 2.66
  24  0.167  0.333  0.625-  16 2.32   4 2.32   2 2.32   8 2.59   5 2.59  44 2.66  48 2.66  47 2.66
                            41 2.66  37 2.66  45 2.66
  25  0.333  0.167  0.375-   3 2.32  15 2.32   5 2.32   9 2.59   2 2.59  38 2.66  43 2.66  46 2.66
                            48 2.66  36 2.66  45 2.66
  26  0.667  0.833  0.625-   4 2.32  16 2.32   6 2.32  10 2.59   1 2.59  37 2.66  45 2.66  39 2.66
                            46 2.66  44 2.66  48 2.66
  27  0.833  0.167  0.375-   1 2.32   5 2.32  15 2.32  11 2.59   4 2.59  38 2.66  43 2.66  46 2.66
                            48 2.66  47 2.66  40 2.66
  28  0.167  0.833  0.625-   2 2.32   6 2.32  16 2.32  12 2.59   3 2.59  41 2.66  47 2.66  44 2.66
                            48 2.66  39 2.66  46 2.66
  29  0.333  0.667  0.375-   5 2.32   1 2.32   3 2.32  13 2.59  16 2.59  36 2.66  40 2.66  45 2.66
                            47 2.66  46 2.66  38 2.66
  30  0.667  0.333  0.625-   6 2.32   2 2.32   4 2.32  14 2.59  15 2.59  39 2.66  46 2.66  45 2.66
                            37 2.66  41 2.66  47 2.66
  31  0.667  0.333  0.125-   7 2.32   9 2.32  11 2.32  14 2.59  15 2.59  34 2.66  38 2.66  36 2.66
                            33 2.66  35 2.66  40 2.66
  32  0.333  0.667  0.875-   8 2.32  10 2.32  12 2.32  13 2.59  16 2.59  33 2.66  35 2.66  37 2.66
                            41 2.66  39 2.66  34 2.66
  33  0.500  0.500  0.000-  36 2.59  37 2.59  10 2.66  17 2.66   7 2.66  22 2.66  31 2.66  32 2.66
                            13 2.66  14 2.66   9 2.66  18 2.66  21 2.66   8 2.66
  34  0.500  0.000  0.000-  38 2.59  39 2.59  14 2.66  31 2.66  17 2.66  20 2.66  10 2.66  11 2.66
                             9 2.66  13 2.66  32 2.66  19 2.66  12 2.66  18 2.66
  35  0.000  0.500  0.000-  40 2.59  41 2.59  12 2.66  19 2.66   8 2.66  21 2.66  22 2.66  32 2.66
                             7 2.66  13 2.66  20 2.66  11 2.66  31 2.66  14 2.66
  36  0.500  0.500  0.250-  33 2.59  45 2.59   1 2.66  17 2.66   7 2.66  23 2.66  29 2.66  31 2.66
                            13 2.66  15 2.66   9 2.66  25 2.66   5 2.66  21 2.66
  37  0.500  0.500  0.750-  33 2.59  45 2.59  10 2.66  26 2.66  22 2.66   6 2.66  30 2.66  32 2.66
                            14 2.66  16 2.66   2 2.66  18 2.66  24 2.66   8 2.66
  38  0.500  0.000  0.250-  34 2.59  46 2.59  15 2.66  31 2.66  17 2.66  25 2.66  27 2.66   9 2.66
                            11 2.66   1 2.66  29 2.66  13 2.66   3 2.66  19 2.66
  39  0.500  0.000  0.750-  34 2.59  46 2.59  14 2.66  30 2.66  20 2.66  26 2.66   4 2.66  10 2.66
                             2 2.66  16 2.66  32 2.66  12 2.66  28 2.66  18 2.66
  40  0.000  0.500  0.250-  35 2.59  47 2.59   3 2.66  19 2.66   5 2.66  21 2.66  23 2.66  29 2.66
                             7 2.66  13 2.66  27 2.66  11 2.66  15 2.66  31 2.66
  41  0.000  0.500  0.750-  35 2.59  47 2.59  12 2.66  28 2.66  22 2.66  24 2.66   8 2.66  32 2.66
                             6 2.66  16 2.66   4 2.66  20 2.66  30 2.66  14 2.66
  42  0.000  0.000  0.000-  43 2.59  44 2.59  18 2.66   8 2.66  21 2.66  19 2.66  20 2.66  11 2.66
                            12 2.66   9 2.66   7 2.66  22 2.66  17 2.66  10 2.66
  43  0.000  0.000  0.250-  42 2.59  48 2.59   5 2.66  21 2.66  19 2.66   3 2.66  25 2.66  27 2.66
                             9 2.66  11 2.66   7 2.66  23 2.66  17 2.66   1 2.66
  44  0.000  0.000  0.750-  42 2.59  48 2.59  18 2.66   8 2.66  24 2.66  20 2.66   2 2.66  28 2.66
                            12 2.66   4 2.66   6 2.66  22 2.66  26 2.66  10 2.66
  45  0.500  0.500  0.500-  36 2.59  37 2.59   1 2.66  26 2.66  23 2.66   6 2.66  29 2.66  30 2.66
                            15 2.66  16 2.66  25 2.66   2 2.66   5 2.66  24 2.66
  46  0.500  0.000  0.500-  38 2.59  39 2.59  15 2.66  30 2.66  25 2.66  26 2.66  27 2.66   2 2.66
                             4 2.66   1 2.66  29 2.66  16 2.66   3 2.66  28 2.66
  47  0.000  0.500  0.500-  40 2.59  41 2.59   3 2.66  28 2.66  23 2.66  24 2.66   5 2.66  29 2.66
                             6 2.66  16 2.66   4 2.66  27 2.66  15 2.66  30 2.66
  48  0.000  0.000  0.500-  43 2.59  44 2.59   5 2.66  24 2.66   3 2.66  25 2.66  27 2.66  28 2.66
                             4 2.66   2 2.66   6 2.66  23 2.66   1 2.66  26 2.66
 
  LATTYP: Found a hexagonal cell.
 ALAT       =     8.0505230132
 C/A-ratio  =     1.2850434344
  
  Lattice vectors:
  
 A1 = (   8.0505230132,   0.0000000000,   0.0000000000)
 A2 = (  -4.0252615066,   6.9719574432,   0.0000000000)
 A3 = (   0.0000000000,   0.0000000000,  10.3452717413)


Analysis of symmetry for initial positions (statically):
=====================================================================
 Subroutine PRICEL returns:
 Original cell was already a primitive cell.
 

 Routine SETGRP: Setting up the symmetry group for a 
 hexagonal supercell.


 Subroutine GETGRP returns: Found 12 space group operations
 (whereof 12 operations were pure point group operations)
 out of a pool of 24 trial point group operations.


The static configuration has the point symmetry D_3d.


Analysis of symmetry for dynamics (positions and initial velocities):
=====================================================================
 Subroutine PRICEL returns:
 Original cell was already a primitive cell.
 

 Routine SETGRP: Setting up the symmetry group for a 
 hexagonal supercell.


 Subroutine GETGRP returns: Found 12 space group operations
 (whereof 12 operations were pure point group operations)
 out of a pool of 24 trial point group operations.


The dynamic configuration has the point symmetry D_3d.


Analysis of structural, dynamic, and magnetic symmetry:
=====================================================================
 Subroutine PRICEL returns:
 Original cell was already a primitive cell.
 

 Routine SETGRP: Setting up the symmetry group for a 
 hexagonal supercell.


 Subroutine GETGRP returns: Found 12 space group operations
 (whereof 12 operations were pure point group operations)
 out of a pool of 24 trial point group operations.


The magnetic configuration has the point symmetry D_3d.


 Subroutine INISYM returns: Found 12 space group operations
 (whereof 12 operations are pure point group operations),
 and found     1 'primitive' translations


----------------------------------------------------------------------------------------

                                     Primitive cell                                     

  volume of cell :     580.6584

  direct lattice vectors                    reciprocal lattice vectors
     8.050523013  0.000000000  0.000000000     0.124215532  0.071715871  0.000000000
    -4.025261507  6.971957443  0.000000000     0.000000000  0.143431742  0.000000000
     0.000000000  0.000000000 10.345271741     0.000000000  0.000000000  0.096662516

  length of vectors
     8.050523013  8.050523013 10.345271741     0.143431742  0.143431742  0.096662516

  position of ions in fractional coordinates (direct lattice)
     0.666666666  0.833333333  0.375000000
     0.333333333  0.166666666  0.625000000
     0.166666666  0.833333333  0.375000000
     0.833333333  0.166666666  0.625000000
     0.166666666  0.333333333  0.375000000
     0.833333333  0.666666666  0.625000000
     0.833333333  0.666666666  0.125000000
     0.166666666  0.333333333  0.875000000
     0.333333333  0.166666666  0.125000000
     0.666666666  0.833333333  0.875000000
     0.833333333  0.166666666  0.125000000
     0.166666666  0.833333333  0.875000000
     0.333333333  0.666666666  0.125000000
     0.666666666  0.333333333  0.875000000
     0.666666666  0.333333333  0.375000000
     0.333333333  0.666666666  0.625000000
     0.666666666  0.833333333  0.125000000
     0.333333313  0.166666666  0.875000000
     0.166666666  0.833333333  0.125000000
     0.833333333  0.166666666  0.875000000
     0.166666666  0.333333333  0.125000000
     0.833333333  0.666666666  0.875000000
     0.833333333  0.666666666  0.375000000
     0.166666666  0.333333333  0.625000000
     0.333333333  0.166666666  0.375000000
     0.666666666  0.833333333  0.625000000
     0.833333333  0.166666666  0.375000000
     0.166666666  0.833333333  0.625000000
     0.333333333  0.666666666  0.375000000
     0.666666666  0.333333333  0.625000000
     0.666666666  0.333333333  0.125000000
     0.333333333  0.666666666  0.875000000
     0.500000000  0.500000000  0.000000000
     0.500000000  0.000000000  0.000000000
     0.000000000  0.500000000  0.000000000
     0.500000000  0.500000000  0.250000000
     0.500000000  0.500000000  0.750000000
     0.500000000  0.000000000  0.250000000
     0.500000000  0.000000000  0.750000000
     0.000000000  0.500000000  0.250000000
     0.000000000  0.500000000  0.750000000
     0.000000000  0.000000000  0.000000000
     0.000000000  0.000000000  0.250000000
     0.000000000  0.000000000  0.750000000
     0.500000000  0.500000000  0.500000000
     0.500000000  0.000000000  0.500000000
     0.000000000  0.500000000  0.500000000
     0.000000000  0.000000000  0.500000000

  ion indices of the primitive-cell ions
   primitive index   ion index
                 1           1
                 2           2
                 3           3
                 4           4
                 5           5
                 6           6
                 7           7
                 8           8
                 9           9
                10          10
                11          11
                12          12
                13          13
                14          14
                15          15
                16          16
                17          17
                18          18
                19          19
                20          20
                21          21
                22          22
                23          23
                24          24
                25          25
                26          26
                27          27
                28          28
                29          29
                30          30
                31          31
                32          32
                33          33
                34          34
                35          35
                36          36
                37          37
                38          38
                39          39
                40          40
                41          41
                42          42
                43          43
                44          44
                45          45
                46          46
                47          47
                48          48

----------------------------------------------------------------------------------------

 
 
 KPOINTS: Auto                                    

Automatic generation of k-mesh.
Space group operators:
 irot       det(A)        alpha          n_x          n_y          n_z        tau_x        tau_y        tau_z
    1     1.000000     0.000000     1.000000     0.000000     0.000000     0.000000     0.000000     0.000000
    2    -1.000000     0.000000     1.000000     0.000000     0.000000     0.000000     0.000000     0.000000
    3     1.000000   120.000000     0.000000     0.000000    -1.000000     0.000000     0.000000     0.000000
    4    -1.000000   120.000000     0.000000     0.000000    -1.000000     0.000000     0.000000     0.000000
    5     1.000000   120.000000     0.000000     0.000000     1.000000     0.000000     0.000000     0.000000
    6    -1.000000   120.000000     0.000000     0.000000     1.000000     0.000000     0.000000     0.000000
    7     1.000000   180.000000     1.000000     0.000000     0.000000     0.000000     0.000000     0.000000
    8    -1.000000   180.000000     1.000000     0.000000     0.000000     0.000000     0.000000     0.000000
    9     1.000000   180.000000     0.500000    -0.866025     0.000000     0.000000     0.000000     0.000000
   10    -1.000000   180.000000     0.500000    -0.866025     0.000000     0.000000     0.000000     0.000000
   11     1.000000   180.000000    -0.500000    -0.866025     0.000000     0.000000     0.000000     0.000000
   12    -1.000000   180.000000    -0.500000    -0.866025     0.000000     0.000000     0.000000     0.000000
 
 Subroutine IBZKPT returns following result:
 ===========================================
 
 Found     69 irreducible k-points:
 
 Following reciprocal coordinates:
            Coordinates               Weight
  0.000000  0.000000  0.000000      1.000000
  0.111111  0.000000  0.000000      6.000000
  0.222222  0.000000  0.000000      6.000000
  0.333333  0.000000  0.000000      6.000000
  0.444444  0.000000  0.000000      6.000000
  0.111111  0.111111  0.000000      6.000000
  0.222222  0.111111  0.000000     12.000000
  0.333333  0.111111  0.000000     12.000000
  0.444444  0.111111  0.000000      6.000000
  0.222222  0.222222  0.000000      6.000000
  0.333333  0.222222  0.000000     12.000000
  0.333333  0.333333  0.000000      2.000000
  0.000000  0.000000  0.142857      2.000000
  0.111111  0.000000  0.142857      6.000000
  0.111111 -0.111111  0.142857      6.000000
  0.222222  0.000000  0.142857      6.000000
  0.222222 -0.222222  0.142857      6.000000
  0.333333  0.000000  0.142857      6.000000
  0.333333 -0.333333  0.142857      6.000000
  0.444444  0.000000  0.142857      6.000000
  0.444444 -0.444444  0.142857      6.000000
  0.111111  0.111111  0.142857     12.000000
  0.222222  0.111111  0.142857     12.000000
  0.333333 -0.222222  0.142857     12.000000
  0.333333  0.111111  0.142857     12.000000
  0.444444 -0.333333  0.142857     12.000000
  0.444444  0.111111  0.142857     12.000000
  0.222222  0.222222  0.142857     12.000000
  0.333333  0.222222  0.142857     12.000000
 -0.444444 -0.333333  0.142857     12.000000
  0.333333  0.333333  0.142857      4.000000
  0.000000  0.000000  0.285714      2.000000
  0.111111  0.000000  0.285714      6.000000
  0.111111 -0.111111  0.285714      6.000000
  0.222222  0.000000  0.285714      6.000000
  0.222222 -0.222222  0.285714      6.000000
  0.333333  0.000000  0.285714      6.000000
  0.333333 -0.333333  0.285714      6.000000
  0.444444  0.000000  0.285714      6.000000
  0.444444 -0.444444  0.285714      6.000000
  0.111111  0.111111  0.285714     12.000000
  0.222222  0.111111  0.285714     12.000000
  0.333333 -0.222222  0.285714     12.000000
  0.333333  0.111111  0.285714     12.000000
  0.444444 -0.333333  0.285714     12.000000
  0.444444  0.111111  0.285714     12.000000
  0.222222  0.222222  0.285714     12.000000
  0.333333  0.222222  0.285714     12.000000
 -0.444444 -0.333333  0.285714     12.000000
  0.333333  0.333333  0.285714      4.000000
  0.000000  0.000000  0.428571      2.000000
  0.111111  0.000000  0.428571      6.000000
  0.111111 -0.111111  0.428571      6.000000
  0.222222  0.000000  0.428571      6.000000
  0.222222 -0.222222  0.428571      6.000000
  0.333333  0.000000  0.428571      6.000000
  0.333333 -0.333333  0.428571      6.000000
  0.444444  0.000000  0.428571      6.000000
  0.444444 -0.444444  0.428571      6.000000
  0.111111  0.111111  0.428571     12.000000
  0.222222  0.111111  0.428571     12.000000
  0.333333 -0.222222  0.428571     12.000000
  0.333333  0.111111  0.428571     12.000000
  0.444444 -0.333333  0.428571     12.000000
  0.444444  0.111111  0.428571     12.000000
  0.222222  0.222222  0.428571     12.000000
  0.333333  0.222222  0.428571     12.000000
 -0.444444 -0.333333  0.428571     12.000000
  0.333333  0.333333  0.428571      4.000000
 
 Following cartesian coordinates:
            Coordinates               Weight
  0.000000  0.000000  0.000000      1.000000
  0.013595  0.007849  0.000000      6.000000
  0.027189  0.015698  0.000000      6.000000
  0.040784  0.023547  0.000000      6.000000
  0.054379  0.031396  0.000000      6.000000
  0.013595  0.023547  0.000000      6.000000
  0.027189  0.031396  0.000000     12.000000
  0.040784  0.039245  0.000000     12.000000
  0.054379  0.047093  0.000000      6.000000
  0.027189  0.047093  0.000000      6.000000
  0.040784  0.054942  0.000000     12.000000
  0.040784  0.070640  0.000000      2.000000
  0.000000  0.000000  0.013602      2.000000
  0.013595  0.007849  0.013602      6.000000
  0.013595 -0.007849  0.013602      6.000000
  0.027189  0.015698  0.013602      6.000000
  0.027189 -0.015698  0.013602      6.000000
  0.040784  0.023547  0.013602      6.000000
  0.040784 -0.023547  0.013602      6.000000
  0.054379  0.031396  0.013602      6.000000
  0.054379 -0.031396  0.013602      6.000000
  0.013595  0.023547  0.013602     12.000000
  0.027189  0.031396  0.013602     12.000000
  0.040784 -0.007849  0.013602     12.000000
  0.040784  0.039245  0.013602     12.000000
  0.054379 -0.015698  0.013602     12.000000
  0.054379  0.047093  0.013602     12.000000
  0.027189  0.047093  0.013602     12.000000
  0.040784  0.054942  0.013602     12.000000
 -0.054379 -0.078489  0.013602     12.000000
  0.040784  0.070640  0.013602      4.000000
  0.000000  0.000000  0.027204      2.000000
  0.013595  0.007849  0.027204      6.000000
  0.013595 -0.007849  0.027204      6.000000
  0.027189  0.015698  0.027204      6.000000
  0.027189 -0.015698  0.027204      6.000000
  0.040784  0.023547  0.027204      6.000000
  0.040784 -0.023547  0.027204      6.000000
  0.054379  0.031396  0.027204      6.000000
  0.054379 -0.031396  0.027204      6.000000
  0.013595  0.023547  0.027204     12.000000
  0.027189  0.031396  0.027204     12.000000
  0.040784 -0.007849  0.027204     12.000000
  0.040784  0.039245  0.027204     12.000000
  0.054379 -0.015698  0.027204     12.000000
  0.054379  0.047093  0.027204     12.000000
  0.027189  0.047093  0.027204     12.000000
  0.040784  0.054942  0.027204     12.000000
 -0.054379 -0.078489  0.027204     12.000000
  0.040784  0.070640  0.027204      4.000000
  0.000000  0.000000  0.040805      2.000000
  0.013595  0.007849  0.040805      6.000000
  0.013595 -0.007849  0.040805      6.000000
  0.027189  0.015698  0.040805      6.000000
  0.027189 -0.015698  0.040805      6.000000
  0.040784  0.023547  0.040805      6.000000
  0.040784 -0.023547  0.040805      6.000000
  0.054379  0.031396  0.040805      6.000000
  0.054379 -0.031396  0.040805      6.000000
  0.013595  0.023547  0.040805     12.000000
  0.027189  0.031396  0.040805     12.000000
  0.040784 -0.007849  0.040805     12.000000
  0.040784  0.039245  0.040805     12.000000
  0.054379 -0.015698  0.040805     12.000000
  0.054379  0.047093  0.040805     12.000000
  0.027189  0.047093  0.040805     12.000000
  0.040784  0.054942  0.040805     12.000000
 -0.054379 -0.078489  0.040805     12.000000
  0.040784  0.070640  0.040805      4.000000
 


--------------------------------------------------------------------------------------------------------




 Dimension of arrays:
   k-points           NKPTS =     69   k-points in BZ     NKDIM =     69   number of bands    NBANDS=    360
   number of dos      NEDOS =    301   number of ions     NIONS =     48
   non local maximal  LDIM  =      6   non local SUM 2l+1 LMDIM =     18
   total plane-waves  NPLWV = 225792
   max r-space proj   IRMAX =      1   max aug-charges    IRDMAX=  21331
   dimension x,y,z NGX =    56 NGY =   56 NGZ =   72
   dimension x,y,z NGXF=   112 NGYF=  112 NGZF=  144
   support grid    NGXF=   112 NGYF=  112 NGZF=  144
   ions per type =              16  16  15   1
   NGX,Y,Z   is equivalent  to a cutoff of  11.56, 11.56, 11.57 a.u.
   NGXF,Y,Z  is equivalent  to a cutoff of  23.13, 23.13, 23.14 a.u.

 SYSTEM =  MnFeNiGe_mag_hex-scf                    
 POSCAR =  MnFeNiGe_hex                            

 Startparameter for this run:
   NWRITE =      2    write-flag & timer
   PREC   = accura    normal or accurate (medium, high low for compatibility)
   ISTART =      0    job   : 0-new  1-cont  2-samecut
   ICHARG =      2    charge: 1-file 2-atom 10-const
   ISPIN  =      2    spin polarized calculation?
   LNONCOLLINEAR =      F non collinear calculations
   LSORBIT =      F    spin-orbit coupling
   INIWAV =      1    electr: 0-lowe 1-rand  2-diag
   LASPH  =      F    aspherical Exc in radial PAW
   METAGGA=      F    non-selfconsistent MetaGGA calc.

 Electronic Relaxation 1
   ENCUT  =  450.0 eV  33.07 Ry    5.75 a.u.  13.92 13.92 17.89*2*pi/ulx,y,z
   ENINI  =  450.0     initial cutoff
   ENAUG  =  544.6 eV  augmentation charge cutoff
   NELM   =     60;   NELMIN=  5; NELMDL= -5     # of ELM steps 
   EDIFF  = 0.1E-05   stopping-criterion for ELM
   LREAL  =      F    real-space projection
   NLSPLINE    = F    spline interpolate recip. space projectors
   LCOMPAT=      F    compatible to vasp.4.4
   GGA_COMPAT  = T    GGA compatible to vasp.4.4-vasp.4.6
   LMAXPAW     = -100 max onsite density
   LMAXMIX     =    2 max onsite mixed and CHGCAR
   VOSKOWN=      0    Vosko Wilk Nusair interpolation
   ROPT   =    0.00000   0.00000   0.00000   0.00000
 Ionic relaxation
   EDIFFG = 0.1E-04   stopping-criterion for IOM
   NSW    =      0    number of steps for IOM
   NBLOCK =      1;   KBLOCK =      1    inner block; outer block 
   IBRION =     -1    ionic relax: 0-MD 1-quasi-New 2-CG
   NFREE  =      0    steps in history (QN), initial steepest desc. (CG)
   ISIF   =      6    stress and relaxation
   IWAVPR =     10    prediction:  0-non 1-charg 2-wave 3-comb
   ISYM   =      2    0-nonsym 1-usesym 2-fastsym
   LCORR  =      T    Harris-Foulkes like correction to forces

   POTIM  = 0.5000    time-step for ionic-motion
   TEIN   =    0.0    initial temperature
   TEBEG  =    0.0;   TEEND  =   0.0 temperature during run
   SMASS  =  -3.00    Nose mass-parameter (am)
   estimated Nose-frequenzy (Omega)   =  0.10E-29 period in steps = 0.13E+47 mass=  -0.148E-26a.u.
   SCALEE = 1.0000    scale energy and forces
   NPACO  =    256;   APACO  = 16.0  distance and # of slots for P.C.
   PSTRESS=    0.0 pullay stress

  Mass of Ions in am
   POMASS =  58.69 72.61 54.94 55.85
  Ionic Valenz
   ZVAL   =  10.00  4.00  7.00  8.00
  Atomic Wigner-Seitz radii
   RWIGS  =  -1.00 -1.00 -1.00 -1.00
  virtual crystal weights 
   VCA    =   1.00  1.00  1.00  1.00
   NELECT =     337.0000    total number of electrons
   NUPDOWN=      -1.0000    fix difference up-down

 DOS related values:
   EMIN   =  10.00;   EMAX   =-10.00  energy-range for DOS
   EFERMI =   0.00
   ISMEAR =     1;   SIGMA  =   0.20  broadening in eV -4-tet -1-fermi 0-gaus

 Electronic relaxation 2 (details)
   IALGO  =     38    algorithm
   LDIAG  =      T    sub-space diagonalisation (order eigenvalues)
   LSUBROT=      F    optimize rotation matrix (better conditioning)
   TURBO    =      0    0=normal 1=particle mesh
   IRESTART =      0    0=no restart 2=restart with 2 vectors
   NREBOOT  =      0    no. of reboots
   NMIN     =      0    reboot dimension
   EREF     =   0.00    reference energy to select bands
   IMIX   =      4    mixing-type and parameters
     AMIX     =   0.40;   BMIX     =  1.00
     AMIX_MAG =   1.60;   BMIX_MAG =  1.00
     AMIN     =   0.10
     WC   =   100.;   INIMIX=   1;  MIXPRE=   1;  MAXMIX= -45

 Intra band minimization:
   WEIMIN = 0.0000     energy-eigenvalue tresh-hold
   EBREAK =  0.69E-09  absolut break condition
   DEPER  =   0.30     relativ break condition  

   TIME   =   0.40     timestep for ELM

  volume/ion in A,a.u.               =      12.10        81.63
  Fermi-wavevector in a.u.,A,eV,Ry     =   1.365561  2.580537 25.371571  1.864758
  Thomas-Fermi vector in A             =   2.491779
 
 Write flags
   LWAVE        =      F    write WAVECAR
   LDOWNSAMPLE  =      F    k-point downsampling of WAVECAR
   LCHARG       =      T    write CHGCAR
   LVTOT        =      F    write LOCPOT, total local potential
   LVHAR        =      F    write LOCPOT, Hartree potential only
   LELF         =      F    write electronic localiz. function (ELF)
   LORBIT       =     11    0 simple, 1 ext, 2 COOP (PROOUT), +10 PAW based schemes


 Dipole corrections
   LMONO  =      F    monopole corrections only (constant potential shift)
   LDIPOL =      F    correct potential (dipole corrections)
   IDIPOL =      0    1-x, 2-y, 3-z, 4-all directions 
   EPSILON=  1.0000000 bulk dielectric constant

 Exchange correlation treatment:
   GGA     =    --    GGA type
   LEXCH   =     8    internal setting for exchange type
   VOSKOWN=      0    Vosko Wilk Nusair interpolation
   LHFCALC =     F    Hartree Fock is set to
   LHFONE  =     F    Hartree Fock one center treatment
   AEXX    =    0.0000 exact exchange contribution

 Linear response parameters
   LEPSILON=     F    determine dielectric tensor
   LRPA    =     F    only Hartree local field effects (RPA)
   LNABLA  =     F    use nabla operator in PAW spheres
   LVEL    =     F    velocity operator in full k-point grid
   LINTERFAST=   F  fast interpolation
   KINTER  =     0    interpolate to denser k-point grid
   CSHIFT  =0.1000    complex shift for real part using Kramers Kronig
   OMEGAMAX=  -1.0    maximum frequency
   DEG_THRESHOLD= 0.2000000E-02 threshold for treating states as degnerate
   RTIME   =   -0.100 relaxation time in fs
  (WPLASMAI=    0.000 imaginary part of plasma frequency in eV, 0.658/RTIME)
   DFIELD  = 0.0000000 0.0000000 0.0000000 field for delta impulse in time
 
 Orbital magnetization related:
   ORBITALMAG=     F  switch on orbital magnetization
   LCHIMAG   =     F  perturbation theory with respect to B field
   DQ        =  0.001000  dq finite difference perturbation B field
   LLRAUG    =     F  two centre corrections for induced B field



--------------------------------------------------------------------------------------------------------


 Static calculation
 charge density and potential will be updated during run
 spin polarized calculation
 Variant of blocked Davidson
 Davidson routine will perform the subspace rotation
 perform sub-space diagonalisation
    after iterative eigenvector-optimisation
 modified Broyden-mixing scheme, WC =      100.0
 initial mixing is a Kerker type mixing with AMIX =  0.4000 and BMIX =      1.0000
 Hartree-type preconditioning will be used
 using additional bands          191
 reciprocal scheme for non local part
 use partial core corrections
 calculate Harris-corrections to forces 
   (improved forces if not selfconsistent)
 use gradient corrections 
 use of overlap-Matrix (Vanderbilt PP)
 Methfessel and Paxton  Order N= 1 SIGMA  =   0.20


--------------------------------------------------------------------------------------------------------


  energy-cutoff  :      450.00
  volume of cell :      580.66
      direct lattice vectors                 reciprocal lattice vectors
     8.050523013  0.000000000  0.000000000     0.124215532  0.071715871  0.000000000
    -4.025261507  6.971957443  0.000000000     0.000000000  0.143431742  0.000000000
     0.000000000  0.000000000 10.345271741     0.000000000  0.000000000  0.096662516

  length of vectors
     8.050523013  8.050523013 10.345271741     0.143431742  0.143431742  0.096662516


 
 k-points in units of 2pi/SCALE and weight: Auto                                    
   0.00000000  0.00000000  0.00000000       0.002
   0.01359470  0.00784890  0.00000000       0.011
   0.02718940  0.01569781  0.00000000       0.011
   0.04078410  0.02354671  0.00000000       0.011
   0.05437880  0.03139561  0.00000000       0.011
   0.01359470  0.02354671  0.00000000       0.011
   0.02718940  0.03139561  0.00000000       0.021
   0.04078410  0.03924452  0.00000000       0.021
   0.05437880  0.04709342  0.00000000       0.011
   0.02718940  0.04709342  0.00000000       0.011
   0.04078410  0.05494233  0.00000000       0.021
   0.04078410  0.07064013  0.00000000       0.004
   0.00000000  0.00000000  0.01360180       0.004
   0.01359470  0.00784890  0.01360180       0.011
   0.01359470 -0.00784890  0.01360180       0.011
   0.02718940  0.01569781  0.01360180       0.011
   0.02718940 -0.01569781  0.01360180       0.011
   0.04078410  0.02354671  0.01360180       0.011
   0.04078410 -0.02354671  0.01360180       0.011
   0.05437880  0.03139561  0.01360180       0.011
   0.05437880 -0.03139561  0.01360180       0.011
   0.01359470  0.02354671  0.01360180       0.021
   0.02718940  0.03139561  0.01360180       0.021
   0.04078410 -0.00784890  0.01360180       0.021
   0.04078410  0.03924452  0.01360180       0.021
   0.05437880 -0.01569781  0.01360180       0.021
   0.05437880  0.04709342  0.01360180       0.021
   0.02718940  0.04709342  0.01360180       0.021
   0.04078410  0.05494233  0.01360180       0.021
  -0.05437880 -0.07848904  0.01360180       0.021
   0.04078410  0.07064013  0.01360180       0.007
   0.00000000  0.00000000  0.02720359       0.004
   0.01359470  0.00784890  0.02720359       0.011
   0.01359470 -0.00784890  0.02720359       0.011
   0.02718940  0.01569781  0.02720359       0.011
   0.02718940 -0.01569781  0.02720359       0.011
   0.04078410  0.02354671  0.02720359       0.011
   0.04078410 -0.02354671  0.02720359       0.011
   0.05437880  0.03139561  0.02720359       0.011
   0.05437880 -0.03139561  0.02720359       0.011
   0.01359470  0.02354671  0.02720359       0.021
   0.02718940  0.03139561  0.02720359       0.021
   0.04078410 -0.00784890  0.02720359       0.021
   0.04078410  0.03924452  0.02720359       0.021
   0.05437880 -0.01569781  0.02720359       0.021
   0.05437880  0.04709342  0.02720359       0.021
   0.02718940  0.04709342  0.02720359       0.021
   0.04078410  0.05494233  0.02720359       0.021
  -0.05437880 -0.07848904  0.02720359       0.021
   0.04078410  0.07064013  0.02720359       0.007
   0.00000000  0.00000000  0.04080539       0.004
   0.01359470  0.00784890  0.04080539       0.011
   0.01359470 -0.00784890  0.04080539       0.011
   0.02718940  0.01569781  0.04080539       0.011
   0.02718940 -0.01569781  0.04080539       0.011
   0.04078410  0.02354671  0.04080539       0.011
   0.04078410 -0.02354671  0.04080539       0.011
   0.05437880  0.03139561  0.04080539       0.011
   0.05437880 -0.03139561  0.04080539       0.011
   0.01359470  0.02354671  0.04080539       0.021
   0.02718940  0.03139561  0.04080539       0.021
   0.04078410 -0.00784890  0.04080539       0.021
   0.04078410  0.03924452  0.04080539       0.021
   0.05437880 -0.01569781  0.04080539       0.021
   0.05437880  0.04709342  0.04080539       0.021
   0.02718940  0.04709342  0.04080539       0.021
   0.04078410  0.05494233  0.04080539       0.021
  -0.05437880 -0.07848904  0.04080539       0.021
   0.04078410  0.07064013  0.04080539       0.007
 
 k-points in reciprocal lattice and weights: Auto                                    
   0.00000000  0.00000000  0.00000000       0.002
   0.11111111  0.00000000  0.00000000       0.011
   0.22222222  0.00000000  0.00000000       0.011
   0.33333333  0.00000000  0.00000000       0.011
   0.44444444  0.00000000  0.00000000       0.011
   0.11111111  0.11111111  0.00000000       0.011
   0.22222222  0.11111111  0.00000000       0.021
   0.33333333  0.11111111  0.00000000       0.021
   0.44444444  0.11111111  0.00000000       0.011
   0.22222222  0.22222222  0.00000000       0.011
   0.33333333  0.22222222  0.00000000       0.021
   0.33333333  0.33333333  0.00000000       0.004
   0.00000000  0.00000000  0.14285714       0.004
   0.11111111  0.00000000  0.14285714       0.011
   0.11111111 -0.11111111  0.14285714       0.011
   0.22222222  0.00000000  0.14285714       0.011
   0.22222222 -0.22222222  0.14285714       0.011
   0.33333333  0.00000000  0.14285714       0.011
   0.33333333 -0.33333333  0.14285714       0.011
   0.44444444  0.00000000  0.14285714       0.011
   0.44444444 -0.44444444  0.14285714       0.011
   0.11111111  0.11111111  0.14285714       0.021
   0.22222222  0.11111111  0.14285714       0.021
   0.33333333 -0.22222222  0.14285714       0.021
   0.33333333  0.11111111  0.14285714       0.021
   0.44444444 -0.33333333  0.14285714       0.021
   0.44444444  0.11111111  0.14285714       0.021
   0.22222222  0.22222222  0.14285714       0.021
   0.33333333  0.22222222  0.14285714       0.021
  -0.44444444 -0.33333333  0.14285714       0.021
   0.33333333  0.33333333  0.14285714       0.007
   0.00000000  0.00000000  0.28571429       0.004
   0.11111111  0.00000000  0.28571429       0.011
   0.11111111 -0.11111111  0.28571429       0.011
   0.22222222  0.00000000  0.28571429       0.011
   0.22222222 -0.22222222  0.28571429       0.011
   0.33333333  0.00000000  0.28571429       0.011
   0.33333333 -0.33333333  0.28571429       0.011
   0.44444444  0.00000000  0.28571429       0.011
   0.44444444 -0.44444444  0.28571429       0.011
   0.11111111  0.11111111  0.28571429       0.021
   0.22222222  0.11111111  0.28571429       0.021
   0.33333333 -0.22222222  0.28571429       0.021
   0.33333333  0.11111111  0.28571429       0.021
   0.44444444 -0.33333333  0.28571429       0.021
   0.44444444  0.11111111  0.28571429       0.021
   0.22222222  0.22222222  0.28571429       0.021
   0.33333333  0.22222222  0.28571429       0.021
  -0.44444444 -0.33333333  0.28571429       0.021
   0.33333333  0.33333333  0.28571429       0.007
   0.00000000  0.00000000  0.42857143       0.004
   0.11111111  0.00000000  0.42857143       0.011
   0.11111111 -0.11111111  0.42857143       0.011
   0.22222222  0.00000000  0.42857143       0.011
   0.22222222 -0.22222222  0.42857143       0.011
   0.33333333  0.00000000  0.42857143       0.011
   0.33333333 -0.33333333  0.42857143       0.011
   0.44444444  0.00000000  0.42857143       0.011
   0.44444444 -0.44444444  0.42857143       0.011
   0.11111111  0.11111111  0.42857143       0.021
   0.22222222  0.11111111  0.42857143       0.021
   0.33333333 -0.22222222  0.42857143       0.021
   0.33333333  0.11111111  0.42857143       0.021
   0.44444444 -0.33333333  0.42857143       0.021
   0.44444444  0.11111111  0.42857143       0.021
   0.22222222  0.22222222  0.42857143       0.021
   0.33333333  0.22222222  0.42857143       0.021
  -0.44444444 -0.33333333  0.42857143       0.021
   0.33333333  0.33333333  0.42857143       0.007
 
 position of ions in fractional coordinates (direct lattice) 
   0.66666667  0.83333333  0.37500000
   0.33333333  0.16666667  0.62500000
   0.16666667  0.83333333  0.37500000
   0.83333333  0.16666667  0.62500000
   0.16666667  0.33333333  0.37500000
   0.83333333  0.66666667  0.62500000
   0.83333333  0.66666667  0.12500000
   0.16666667  0.33333333  0.87500000
   0.33333333  0.16666667  0.12500000
   0.66666667  0.83333333  0.87500000
   0.83333333  0.16666667  0.12500000
   0.16666667  0.83333333  0.87500000
   0.33333333  0.66666667  0.12500000
   0.66666667  0.33333333  0.87500000
   0.66666667  0.33333333  0.37500000
   0.33333333  0.66666667  0.62500000
   0.66666667  0.83333333  0.12500000
   0.33333331  0.16666667  0.87500000
   0.16666667  0.83333333  0.12500000
   0.83333333  0.16666667  0.87500000
   0.16666667  0.33333333  0.12500000
   0.83333333  0.66666667  0.87500000
   0.83333333  0.66666667  0.37500000
   0.16666667  0.33333333  0.62500000
   0.33333333  0.16666667  0.37500000
   0.66666667  0.83333333  0.62500000
   0.83333333  0.16666667  0.37500000
   0.16666667  0.83333333  0.62500000
   0.33333333  0.66666667  0.37500000
   0.66666667  0.33333333  0.62500000
   0.66666667  0.33333333  0.12500000
   0.33333333  0.66666667  0.87500000
   0.50000000  0.50000000  0.00000000
   0.50000000  0.00000000  0.00000000
   0.00000000  0.50000000  0.00000000
   0.50000000  0.50000000  0.25000000
   0.50000000  0.50000000  0.75000000
   0.50000000  0.00000000  0.25000000
   0.50000000  0.00000000  0.75000000
   0.00000000  0.50000000  0.25000000
   0.00000000  0.50000000  0.75000000
   0.00000000  0.00000000  0.00000000
   0.00000000  0.00000000  0.25000000
   0.00000000  0.00000000  0.75000000
   0.50000000  0.50000000  0.50000000
   0.50000000  0.00000000  0.50000000
   0.00000000  0.50000000  0.50000000
   0.00000000  0.00000000  0.50000000
 
 position of ions in cartesian coordinates  (Angst):
   2.01263075  5.80996453  3.87947690
   2.01263075  1.16199290  6.46579484
  -2.01263076  5.80996453  3.87947690
   6.03789226  1.16199290  6.46579484
  -0.00000000  2.32398581  3.87947690
   4.02526151  4.64797162  6.46579484
   4.02526151  4.64797162  1.29315897
  -0.00000000  2.32398581  9.05211277
   2.01263075  1.16199290  1.29315897
   2.01263075  5.80996453  9.05211277
   6.03789226  1.16199290  1.29315897
  -2.01263076  5.80996453  9.05211277
   0.00000000  4.64797162  1.29315897
   4.02526150  2.32398581  9.05211277
   4.02526150  2.32398581  3.87947690
   0.00000000  4.64797162  6.46579484
   2.01263075  5.80996453  1.29315897
   2.01263059  1.16199290  9.05211277
  -2.01263076  5.80996453  1.29315897
   6.03789226  1.16199290  9.05211277
  -0.00000000  2.32398581  1.29315897
   4.02526151  4.64797162  9.05211277
   4.02526151  4.64797162  3.87947690
  -0.00000000  2.32398581  6.46579484
   2.01263075  1.16199290  3.87947690
   2.01263075  5.80996453  6.46579484
   6.03789226  1.16199290  3.87947690
  -2.01263076  5.80996453  6.46579484
   0.00000000  4.64797162  3.87947690
   4.02526150  2.32398581  6.46579484
   4.02526150  2.32398581  1.29315897
   0.00000000  4.64797162  9.05211277
   2.01263075  3.48597872  0.00000000
   4.02526151  0.00000000  0.00000000
  -2.01263075  3.48597872  0.00000000
   2.01263075  3.48597872  2.58631794
   2.01263075  3.48597872  7.75895381
   4.02526151  0.00000000  2.58631794
   4.02526151  0.00000000  7.75895381
  -2.01263075  3.48597872  2.58631794
  -2.01263075  3.48597872  7.75895381
   0.00000000  0.00000000  0.00000000
   0.00000000  0.00000000  2.58631794
   0.00000000  0.00000000  7.75895381
   2.01263075  3.48597872  5.17263587
   4.02526151  0.00000000  5.17263587
  -2.01263075  3.48597872  5.17263587
   0.00000000  0.00000000  5.17263587
 


--------------------------------------------------------------------------------------------------------


 k-point   1 :   0.0000 0.0000 0.0000  plane waves:   12539
 k-point   2 :   0.1111 0.0000 0.0000  plane waves:   12550
 k-point   3 :   0.2222 0.0000 0.0000  plane waves:   12598
 k-point   4 :   0.3333 0.0000 0.0000  plane waves:   12598
 k-point   5 :   0.4444 0.0000 0.0000  plane waves:   12590
 k-point   6 :   0.1111 0.1111 0.0000  plane waves:   12582
 k-point   7 :   0.2222 0.1111 0.0000  plane waves:   12597
 k-point   8 :   0.3333 0.1111 0.0000  plane waves:   12578
 k-point   9 :   0.4444 0.1111 0.0000  plane waves:   12630
 k-point  10 :   0.2222 0.2222 0.0000  plane waves:   12574
 k-point  11 :   0.3333 0.2222 0.0000  plane waves:   12574
 k-point  12 :   0.3333 0.3333 0.0000  plane waves:   12558
 k-point  13 :   0.0000 0.0000 0.1429  plane waves:   12546
 k-point  14 :   0.1111 0.0000 0.1429  plane waves:   12537
 k-point  15 :   0.1111-0.1111 0.1429  plane waves:   12537
 k-point  16 :   0.2222 0.0000 0.1429  plane waves:   12579
 k-point  17 :   0.2222-0.2222 0.1429  plane waves:   12579
 k-point  18 :   0.3333 0.0000 0.1429  plane waves:   12595
 k-point  19 :   0.3333-0.3333 0.1429  plane waves:   12595
 k-point  20 :   0.4444 0.0000 0.1429  plane waves:   12589
 k-point  21 :   0.4444-0.4444 0.1429  plane waves:   12589
 k-point  22 :   0.1111 0.1111 0.1429  plane waves:   12585
 k-point  23 :   0.2222 0.1111 0.1429  plane waves:   12582
 k-point  24 :   0.3333-0.2222 0.1429  plane waves:   12582
 k-point  25 :   0.3333 0.1111 0.1429  plane waves:   12594
 k-point  26 :   0.4444-0.3333 0.1429  plane waves:   12594
 k-point  27 :   0.4444 0.1111 0.1429  plane waves:   12584
 k-point  28 :   0.2222 0.2222 0.1429  plane waves:   12578
 k-point  29 :   0.3333 0.2222 0.1429  plane waves:   12588
 k-point  30 :  -0.4444-0.3333 0.1429  plane waves:   12588
 k-point  31 :   0.3333 0.3333 0.1429  plane waves:   12603
 k-point  32 :   0.0000 0.0000 0.2857  plane waves:   12546
 k-point  33 :   0.1111 0.0000 0.2857  plane waves:   12559
 k-point  34 :   0.1111-0.1111 0.2857  plane waves:   12559
 k-point  35 :   0.2222 0.0000 0.2857  plane waves:   12576
 k-point  36 :   0.2222-0.2222 0.2857  plane waves:   12576
 k-point  37 :   0.3333 0.0000 0.2857  plane waves:   12585
 k-point  38 :   0.3333-0.3333 0.2857  plane waves:   12585
 k-point  39 :   0.4444 0.0000 0.2857  plane waves:   12591
 k-point  40 :   0.4444-0.4444 0.2857  plane waves:   12591
 k-point  41 :   0.1111 0.1111 0.2857  plane waves:   12581
 k-point  42 :   0.2222 0.1111 0.2857  plane waves:   12580
 k-point  43 :   0.3333-0.2222 0.2857  plane waves:   12580
 k-point  44 :   0.3333 0.1111 0.2857  plane waves:   12599
 k-point  45 :   0.4444-0.3333 0.2857  plane waves:   12599
 k-point  46 :   0.4444 0.1111 0.2857  plane waves:   12600
 k-point  47 :   0.2222 0.2222 0.2857  plane waves:   12599
 k-point  48 :   0.3333 0.2222 0.2857  plane waves:   12602
 k-point  49 :  -0.4444-0.3333 0.2857  plane waves:   12602
 k-point  50 :   0.3333 0.3333 0.2857  plane waves:   12603
 k-point  51 :   0.0000 0.0000 0.4286  plane waves:   12570
 k-point  52 :   0.1111 0.0000 0.4286  plane waves:   12566
 k-point  53 :   0.1111-0.1111 0.4286  plane waves:   12566
 k-point  54 :   0.2222 0.0000 0.4286  plane waves:   12575
 k-point  55 :   0.2222-0.2222 0.4286  plane waves:   12575
 k-point  56 :   0.3333 0.0000 0.4286  plane waves:   12579
 k-point  57 :   0.3333-0.3333 0.4286  plane waves:   12579
 k-point  58 :   0.4444 0.0000 0.4286  plane waves:   12591
 k-point  59 :   0.4444-0.4444 0.4286  plane waves:   12591
 k-point  60 :   0.1111 0.1111 0.4286  plane waves:   12564
 k-point  61 :   0.2222 0.1111 0.4286  plane waves:   12579
 k-point  62 :   0.3333-0.2222 0.4286  plane waves:   12579
 k-point  63 :   0.3333 0.1111 0.4286  plane waves:   12603
 k-point  64 :   0.4444-0.3333 0.4286  plane waves:   12603
 k-point  65 :   0.4444 0.1111 0.4286  plane waves:   12608
 k-point  66 :   0.2222 0.2222 0.4286  plane waves:   12612
 k-point  67 :   0.3333 0.2222 0.4286  plane waves:   12604
 k-point  68 :  -0.4444-0.3333 0.4286  plane waves:   12604
 k-point  69 :   0.3333 0.3333 0.4286  plane waves:   12582

 maximum and minimum number of plane-waves per node :      2119     2076

 maximum number of plane-waves:     12630
 maximum index in each direction: 
   IXMAX=   14   IYMAX=   14   IZMAX=   17
   IXMIN=  -14   IYMIN=  -14   IZMIN=  -18


 parallel 3D FFT for wavefunctions:
    minimum data exchange during FFTs selected (reduces bandwidth)
 parallel 3D FFT for charge:
    minimum data exchange during FFTs selected (reduces bandwidth)


 total amount of memory used by VASP MPI-rank0   576554. kBytes
=======================================================================

   base      :      30000. kBytes
   nonl-proj :      85399. kBytes
   fftplans  :       3906. kBytes
   grid      :      11074. kBytes
   one-center:        248. kBytes
   wavefun   :     445927. kBytes
 
     INWAV:  cpu time    0.0010: real time    0.0024
 Broyden mixing: mesh for mixing (old mesh)
   NGX = 27   NGY = 27   NGZ = 35
  (NGX  =112   NGY  =112   NGZ  =144)
  gives a total of  25515 points

 initial charge density was supplied:
 charge density of overlapping atoms calculated
 number of electron     337.0000000 magnetization     160.0000000
 keeping initial charge density in first step


--------------------------------------------------------------------------------------------------------


 Maximum index for augmentation-charges          958 (set IRDMAX)


--------------------------------------------------------------------------------------------------------


 First call to EWALD:  gamma=   0.212
 Maximum number of real-space cells 3x 3x 2
 Maximum number of reciprocal cells 3x 3x 3

    FEWALD:  cpu time    0.0020: real time    0.0188


--------------------------------------- Iteration      1(   1)  ---------------------------------------


    POTLOK:  cpu time    0.1640: real time    0.5445
    SETDIJ:  cpu time    0.0320: real time    0.2118
     EDDAV:  cpu time  315.0511: real time  318.2482
       DOS:  cpu time    0.0420: real time    0.1042
    --------------------------------------------
      LOOP:  cpu time  315.2891: real time  319.1089

 eigenvalue-minimisations  : 99360
 total energy-change (2. order) : 0.2866441E+04  (-0.1077615E+05)
 number of electron     337.0000000 magnetization     160.0000000
 augmentation part      337.0000000 magnetization     160.0000000

 Free energy of the ion-electron system (eV)
  ---------------------------------------------------
  alpha Z        PSCENC =      1654.02813934
  Ewald energy   TEWEN  =    -22845.71460337
  -Hartree energ DENC   =     -6592.73784443
  -exchange      EXHF   =         0.00000000
  -V(xc)+E(xc)   XCENC  =       323.22684315
  PAW double counting   =     23377.83946347   -23998.34197029
  entropy T*S    EENTRO =        -0.00054307
  eigenvalues    EBANDS =      5179.91519520
  atomic energy  EATOM  =     25768.22672671
  Solvation  Ediel_sol  =         0.00000000
  ---------------------------------------------------
  free energy    TOTEN  =      2866.44140671 eV

  energy without entropy =     2866.44194979  energy(sigma->0) =     2866.44158774


--------------------------------------------------------------------------------------------------------




--------------------------------------- Iteration      1(   2)  ---------------------------------------


     EDDAV:  cpu time  314.9651: real time  316.5152
       DOS:  cpu time    0.0500: real time    0.0500
    --------------------------------------------
      LOOP:  cpu time  315.0151: real time  316.5652

 eigenvalue-minimisations  : 99360
 total energy-change (2. order) :-0.2674018E+04  (-0.2380929E+04)
 number of electron     337.0000000 magnetization     160.0000000
 augmentation part      337.0000000 magnetization     160.0000000

 Free energy of the ion-electron system (eV)
  ---------------------------------------------------
  alpha Z        PSCENC =      1654.02813934
  Ewald energy   TEWEN  =    -22845.71460337
  -Hartree energ DENC   =     -6592.73784443
  -exchange      EXHF   =         0.00000000
  -V(xc)+E(xc)   XCENC  =       323.22684315
  PAW double counting   =     23377.83946347   -23998.34197029
  entropy T*S    EENTRO =        -0.00314729
  eigenvalues    EBANDS =      2505.90027301
  atomic energy  EATOM  =     25768.22672671
  Solvation  Ediel_sol  =         0.00000000
  ---------------------------------------------------
  free energy    TOTEN  =       192.42388030 eV

  energy without entropy =      192.42702759  energy(sigma->0) =      192.42492939


--------------------------------------------------------------------------------------------------------




--------------------------------------- Iteration      1(   3)  ---------------------------------------


     EDDAV:  cpu time  315.2621: real time  316.7546
       DOS:  cpu time    0.0560: real time    0.0562
    --------------------------------------------
      LOOP:  cpu time  315.3181: real time  316.8107

 eigenvalue-minimisations  : 99488
 total energy-change (2. order) :-0.4512410E+03  (-0.3717119E+03)
 number of electron     337.0000000 magnetization     160.0000000
 augmentation part      337.0000000 magnetization     160.0000000

 Free energy of the ion-electron system (eV)
  ---------------------------------------------------
  alpha Z        PSCENC =      1654.02813934
  Ewald energy   TEWEN  =    -22845.71460337
  -Hartree energ DENC   =     -6592.73784443
  -exchange      EXHF   =         0.00000000
  -V(xc)+E(xc)   XCENC  =       323.22684315
  PAW double counting   =     23377.83946347   -23998.34197029
  entropy T*S    EENTRO =         0.03254932
  eigenvalues    EBANDS =      2054.62360105
  atomic energy  EATOM  =     25768.22672671
  Solvation  Ediel_sol  =         0.00000000
  ---------------------------------------------------
  free energy    TOTEN  =      -258.81709505 eV

  energy without entropy =     -258.84964437  energy(sigma->0) =     -258.82794483


--------------------------------------------------------------------------------------------------------




--------------------------------------- Iteration      1(   4)  ---------------------------------------


     EDDAV:  cpu time  368.4660: real time  369.9496
       DOS:  cpu time    0.0600: real time    0.0597
    --------------------------------------------
      LOOP:  cpu time  368.5260: real time  370.0094

 eigenvalue-minimisations  :121504
 total energy-change (2. order) :-0.3289700E+02  (-0.3143657E+02)
 number of electron     337.0000000 magnetization     160.0000000
 augmentation part      337.0000000 magnetization     160.0000000

 Free energy of the ion-electron system (eV)
  ---------------------------------------------------
  alpha Z        PSCENC =      1654.02813934
  Ewald energy   TEWEN  =    -22845.71460337
  -Hartree energ DENC   =     -6592.73784443
  -exchange      EXHF   =         0.00000000
  -V(xc)+E(xc)   XCENC  =       323.22684315
  PAW double counting   =     23377.83946347   -23998.34197029
  entropy T*S    EENTRO =         0.03951692
  eigenvalues    EBANDS =      2021.71963705
  atomic energy  EATOM  =     25768.22672671
  Solvation  Ediel_sol  =         0.00000000
  ---------------------------------------------------
  free energy    TOTEN  =      -291.71409144 eV

  energy without entropy =     -291.75360837  energy(sigma->0) =     -291.72726375


--------------------------------------------------------------------------------------------------------




--------------------------------------- Iteration      1(   5)  ---------------------------------------


     EDDAV:  cpu time  369.8778: real time  371.2977
       DOS:  cpu time    0.0590: real time    0.0622
    CHARGE:  cpu time    5.8941: real time    5.9776
    MIXING:  cpu time    0.0060: real time    0.0711
    --------------------------------------------
      LOOP:  cpu time  375.8369: real time  377.4086

 eigenvalue-minimisations  :122120
 total energy-change (2. order) :-0.8465597E+00  (-0.8446012E+00)
 number of electron     337.0000154 magnetization     124.1898713
 augmentation part      120.7435858 magnetization     101.6716296

 Broyden mixing:
  rms(total) = 0.10512E+02    rms(broyden)= 0.10512E+02
  rms(prec ) = 0.11389E+02
  weight for this iteration     100.00

 Free energy of the ion-electron system (eV)
  ---------------------------------------------------
  alpha Z        PSCENC =      1654.02813934
  Ewald energy   TEWEN  =    -22845.71460337
  -Hartree energ DENC   =     -6592.73784443
  -exchange      EXHF   =         0.00000000
  -V(xc)+E(xc)   XCENC  =       323.22684315
  PAW double counting   =     23377.83946347   -23998.34197029
  entropy T*S    EENTRO =         0.03966907
  eigenvalues    EBANDS =      2020.87292525
  atomic energy  EATOM  =     25768.22672671
  Solvation  Ediel_sol  =         0.00000000
  ---------------------------------------------------
  free energy    TOTEN  =      -292.56065109 eV

  energy without entropy =     -292.60032017  energy(sigma->0) =     -292.57387412


--------------------------------------------------------------------------------------------------------




--------------------------------------- Iteration      1(   6)  ---------------------------------------


    POTLOK:  cpu time    0.1490: real time    0.1556
    SETDIJ:  cpu time    0.0280: real time    0.0283
     EDDAV:  cpu time  379.1494: real time  380.5964
       DOS:  cpu time    0.0620: real time    0.0612
    CHARGE:  cpu time    5.5832: real time    5.5927
    MIXING:  cpu time    0.0060: real time    0.1455
    --------------------------------------------
[...]
   43        0.020   0.016   2.740   2.775
   44        0.020   0.016   2.740   2.775
   45        0.018   0.015   2.649   2.681
   46        0.018   0.015   2.649   2.681
   47        0.018   0.015   2.649   2.681
   48        0.014   0.003   2.154   2.172
--------------------------------------------------
tot         -0.313  -1.747  44.556  42.496
 
    CHARGE:  cpu time    5.5132: real time    5.5321
    FORLOC:  cpu time    0.0220: real time    0.0386
    FORNL :  cpu time  106.2408: real time  106.5969
    STRESS:  cpu time  182.3283: real time  182.9463
    FORCOR:  cpu time    0.1670: real time    0.2208
    FORHAR:  cpu time    0.0340: real time    0.0501
    MIXING:  cpu time    0.0070: real time    0.0074
    OFIELD:  cpu time    0.0010: real time    0.0056

  FORCE on cell =-STRESS in cart. coord.  units (eV):
  Direction    XX          YY          ZZ          XY          YZ          ZX
  --------------------------------------------------------------------------------------
  Alpha Z  1654.02814  1654.02814  1654.02814
  Ewald   -7393.32832 -7393.32832 -8059.15328    -0.00001     0.00000     0.00000
  Hartree  2079.76553  2079.76553  1955.85794    -0.00000     0.00000    -0.00000
  E(xc)   -1661.25176 -1661.25179 -1664.38533    -0.00003     0.00000    -0.00000
  Local    -611.70324  -611.70446    50.18208    -0.00104    -0.00000     0.00000
  n-local  -205.02257  -207.41426  -245.56881     1.08479    -0.47459    -0.62030
  augment  3293.47789  3293.47873  3367.70402     0.00073     0.00000    -0.00000
  Kinetic  2871.44558  2871.50309  2964.57158     0.09507     0.44966     1.28451
  Fock        0.00000     0.00000     0.00000     0.00000     0.00000     0.00000
  -------------------------------------------------------------------------------------
  Total      26.24395    26.24395    23.23634     0.00000    -0.00000     0.00000
  in kB      72.41342    72.41342    64.11469     0.00000    -0.00000     0.00000
  external pressure =       69.65 kB  Pullay stress =        0.00 kB


 VOLUME and BASIS-vectors are now :
 -----------------------------------------------------------------------------
  energy-cutoff  :      450.00
  volume of cell :      580.66
      direct lattice vectors                 reciprocal lattice vectors
     8.050523013  0.000000000  0.000000000     0.124215532  0.071715871  0.000000000
    -4.025261507  6.971957443  0.000000000     0.000000000  0.143431742  0.000000000
     0.000000000  0.000000000 10.345271741     0.000000000  0.000000000  0.096662516

  length of vectors
     8.050523013  8.050523013 10.345271741     0.143431742  0.143431742  0.096662516


 FORCES acting on ions
    electron-ion (+dipol)            ewald-force                    non-local-force                 convergence-correction
 -----------------------------------------------------------------------------------------------
   0.124E+02 0.718E+01 0.102E+02   -.125E+02 -.721E+01 -.102E+02   0.448E-01 0.259E-01 -.156E-01   0.101E-01 0.584E-02 0.675E-02
   -.124E+02 -.718E+01 -.102E+02   0.125E+02 0.721E+01 0.102E+02   -.448E-01 -.259E-01 0.156E-01   -.101E-01 -.584E-02 -.675E-02
   -.124E+02 0.718E+01 0.102E+02   0.125E+02 -.721E+01 -.102E+02   -.448E-01 0.259E-01 -.156E-01   -.101E-01 0.584E-02 0.675E-02
   0.124E+02 -.718E+01 -.102E+02   -.125E+02 0.721E+01 0.102E+02   0.448E-01 -.259E-01 0.156E-01   0.101E-01 -.584E-02 -.675E-02
   0.198E-05 -.144E+02 0.102E+02   0.108E-05 0.144E+02 -.102E+02   -.434E-18 -.517E-01 -.156E-01   -.206E-09 -.117E-01 0.675E-02
   -.232E-05 0.144E+02 -.102E+02   -.653E-06 -.144E+02 0.102E+02   0.000E+00 0.517E-01 0.156E-01   0.530E-09 0.117E-01 -.675E-02
   -.217E-05 0.183E+01 0.432E+01   -.653E-06 -.185E+01 -.436E+01   0.000E+00 0.261E-01 0.402E-01   0.289E-09 0.265E-02 0.335E-02
   0.260E-06 -.183E+01 -.432E+01   -.919E-05 0.185E+01 0.436E+01   0.217E-18 -.261E-01 -.402E-01   0.728E-09 -.265E-02 -.335E-02
   -.158E+01 -.914E+00 0.432E+01   0.160E+01 0.925E+00 -.436E+01   -.226E-01 -.131E-01 0.402E-01   -.230E-02 -.133E-02 0.335E-02
   0.158E+01 0.914E+00 -.432E+01   -.160E+01 -.925E+00 0.436E+01   0.226E-01 0.131E-01 -.402E-01   0.230E-02 0.133E-02 -.335E-02
   0.158E+01 -.914E+00 0.432E+01   -.160E+01 0.925E+00 -.436E+01   0.226E-01 -.131E-01 0.402E-01   0.230E-02 -.133E-02 0.335E-02
   -.158E+01 0.914E+00 -.432E+01   0.160E+01 -.925E+00 0.436E+01   -.226E-01 0.131E-01 -.402E-01   -.230E-02 0.133E-02 -.335E-02
   -.217E-05 0.103E-05 0.292E+01   -.653E-06 0.215E-05 -.288E+01   0.217E-18 0.000E+00 -.396E-01   0.178E-08 -.252E-07 0.219E-02
   0.254E-06 -.288E-05 -.292E+01   -.919E-05 -.953E-05 0.288E+01   -.596E-18 0.000E+00 0.396E-01   -.770E-09 0.186E-07 -.219E-02
   0.181E-05 -.146E-05 0.357E+01   0.112E-05 -.124E-06 -.362E+01   -.217E-18 0.000E+00 0.812E-01   -.409E-09 0.838E-08 0.167E-02
   -.217E-05 0.101E-05 -.357E+01   -.653E-06 0.216E-05 0.362E+01   -.217E-18 0.000E+00 -.812E-01   0.703E-09 -.246E-07 -.167E-02
   0.633E+00 0.365E+00 0.171E+01   -.641E+00 -.370E+00 -.174E+01   0.108E-01 0.625E-02 0.317E-02   0.107E-02 0.616E-03 0.140E-02
   -.633E+00 -.365E+00 -.171E+01   0.641E+00 0.370E+00 0.174E+01   -.108E-01 -.625E-02 -.317E-02   -.107E-02 -.616E-03 -.140E-02
   -.633E+00 0.365E+00 0.171E+01   0.641E+00 -.370E+00 -.174E+01   -.108E-01 0.625E-02 0.317E-02   -.107E-02 0.616E-03 0.140E-02
   0.633E+00 -.365E+00 -.171E+01   -.641E+00 0.370E+00 0.174E+01   0.108E-01 -.625E-02 -.317E-02   0.107E-02 -.616E-03 -.140E-02
   0.442E-06 -.731E+00 0.171E+01   0.368E-06 0.740E+00 -.174E+01   0.867E-18 -.125E-01 0.317E-02   0.516E-08 -.123E-02 0.140E-02
   -.439E-06 0.731E+00 -.171E+01   -.633E-06 -.740E+00 0.174E+01   -.867E-18 0.125E-01 -.317E-02   -.498E-08 0.123E-02 -.140E-02
   -.396E-06 0.572E+01 0.404E+01   -.435E-06 -.577E+01 -.407E+01   -.173E-17 0.138E+00 0.923E-01   -.421E-08 0.439E-02 0.254E-02
   0.437E-06 -.572E+01 -.404E+01   0.360E-06 0.577E+01 0.407E+01   0.000E+00 -.138E+00 -.923E-01   0.431E-08 -.439E-02 -.254E-02
   -.495E+01 -.286E+01 0.404E+01   0.499E+01 0.288E+01 -.407E+01   -.119E+00 -.690E-01 0.923E-01   -.380E-02 -.220E-02 0.254E-02
   0.495E+01 0.286E+01 -.404E+01   -.499E+01 -.288E+01 0.407E+01   0.119E+00 0.690E-01 -.923E-01   0.380E-02 0.220E-02 -.254E-02
   0.495E+01 -.286E+01 0.404E+01   -.499E+01 0.288E+01 -.407E+01   0.119E+00 -.690E-01 0.923E-01   0.380E-02 -.220E-02 0.254E-02
   -.495E+01 0.286E+01 -.404E+01   0.499E+01 -.288E+01 0.407E+01   -.119E+00 0.690E-01 -.923E-01   -.380E-02 0.220E-02 -.254E-02
   -.402E-06 0.341E-06 0.144E+01   -.435E-06 0.648E-06 -.145E+01   0.000E+00 0.000E+00 0.683E-02   -.497E-08 -.257E-08 0.104E-02
   0.430E-06 -.272E-06 -.144E+01   0.373E-06 -.608E-06 0.145E+01   0.000E+00 0.000E+00 -.683E-02   0.507E-08 0.118E-08 -.104E-02
   0.436E-06 -.264E-06 0.118E+01   0.370E-06 -.610E-06 -.115E+01   0.867E-18 -.173E-17 0.550E-02   0.478E-08 0.135E-08 0.113E-02
   -.435E-06 0.508E-06 -.118E+01   -.633E-06 0.176E-05 0.115E+01   -.867E-18 -.173E-17 -.550E-02   -.460E-08 -.801E-08 -.113E-02
   0.578E-06 0.292E-06 0.231E-10   0.230E-05 -.730E-06 -.604E-13   0.132E-22 0.000E+00 0.000E+00   -.180E-07 0.201E-10 -.612E-12
   -.306E-06 0.803E-06 -.549E-06   -.359E-05 0.267E-05 -.364E-05   0.000E+00 0.000E+00 0.000E+00   0.419E-09 -.106E-07 0.530E-08
   -.269E-08 0.292E-06 -.200E-10   -.156E-05 -.730E-06 0.139E-12   -.331E-23 0.000E+00 0.000E+00   0.174E-07 0.214E-10 -.150E-11
   0.761E-02 -.439E-02 0.361E+01   -.849E-07 -.730E-06 -.361E+01   -.437E-02 0.252E-02 0.799E-02   0.297E-03 -.171E-03 0.264E-02
   -.761E-02 0.439E-02 -.361E+01   0.230E-05 -.730E-06 0.361E+01   0.437E-02 -.252E-02 -.799E-02   -.297E-03 0.171E-03 -.264E-02
   0.159E-06 0.879E-02 0.361E+01   -.492E-06 -.495E-06 -.361E+01   0.271E-18 -.504E-02 0.799E-02   -.319E-08 0.343E-03 0.264E-02
   -.308E-06 -.879E-02 -.361E+01   -.359E-05 0.267E-05 0.361E+01   -.271E-18 0.504E-02 -.799E-02   0.373E-08 -.343E-03 -.264E-02
   -.761E-02 -.439E-02 0.361E+01   -.688E-06 -.730E-06 -.361E+01   0.437E-02 0.252E-02 0.799E-02   -.297E-03 -.171E-03 0.264E-02
   0.761E-02 0.439E-02 -.361E+01   -.156E-05 -.730E-06 0.361E+01   -.437E-02 -.252E-02 -.799E-02   0.297E-03 0.171E-03 -.264E-02
   -.306E-06 -.219E-06 0.549E-06   -.359E-05 -.413E-05 0.364E-05   0.265E-22 0.000E+00 0.000E+00   0.422E-09 0.106E-07 -.530E-08
   0.158E-06 0.254E-06 0.143E+02   -.492E-06 -.965E-06 -.144E+02   -.745E-19 0.000E+00 0.254E+00   0.290E-08 0.464E-08 0.964E-02
   -.307E-06 -.217E-06 -.143E+02   -.359E-05 -.413E-05 0.144E+02   0.813E-19 0.000E+00 -.254E+00   -.236E-08 0.122E-07 -.964E-02
   0.219E-06 0.292E-06 -.351E-11   -.849E-07 -.730E-06 0.284E-13   -.331E-23 0.000E+00 0.000E+00   -.107E-07 0.207E-10 0.519E-12
   0.158E-06 0.327E-06 0.797E-07   -.492E-06 -.495E-06 0.530E-06   0.331E-23 0.000E+00 0.000E+00   0.112E-09 -.620E-08 -.444E-08
   0.128E-06 0.292E-06 -.215E-10   -.688E-06 -.730E-06 0.142E-13   0.000E+00 0.000E+00 0.000E+00   0.105E-07 0.231E-10 0.143E-11
   0.181E-06 0.293E-06 -.910E-07   -.562E-06 -.110E-05 -.606E-06   0.000E+00 0.000E+00 0.000E+00   0.139E-09 0.729E-08 0.523E-08
 -----------------------------------------------------------------------------------------------
   -.693E-05 0.101E-05 -.823E-07   0.386E-13 -.314E-13 0.000E+00   0.139E-16 -.312E-16 -.555E-16   0.219E-09 0.115E-08 0.716E-09
 
 
 POSITION                                       TOTAL-FORCE (eV/Angst)
 -----------------------------------------------------------------------------------
      2.01263      5.80996      3.87948         0.003819      0.002205      0.005174
      2.01263      1.16199      6.46579        -0.003819     -0.002205     -0.005174
     -2.01263      5.80996      3.87948        -0.003819      0.002205      0.005174
      6.03789      1.16199      6.46579         0.003819     -0.002205     -0.005174
     -0.00000      2.32399      3.87948         0.000000     -0.004410      0.005174
      4.02526      4.64797      6.46579        -0.000000      0.004410     -0.005174
      4.02526      4.64797      1.29316         0.000000      0.008130      0.003809
     -0.00000      2.32399      9.05211        -0.000000     -0.008130     -0.003809
      2.01263      1.16199      1.29316        -0.007041     -0.004065      0.003809
      2.01263      5.80996      9.05211         0.007041      0.004065     -0.003809
      6.03789      1.16199      1.29316         0.007041     -0.004065      0.003809
     -2.01263      5.80996      9.05211        -0.007041      0.004065     -0.003809
      0.00000      4.64797      1.29316         0.000000     -0.000000      0.003576
      4.02526      2.32399      9.05211        -0.000000     -0.000000     -0.003576
      4.02526      2.32399      3.87948        -0.000000     -0.000000      0.032680
      0.00000      4.64797      6.46579         0.000000     -0.000000     -0.032680
      2.01263      5.80996      1.29316         0.003918      0.002262     -0.023096
      2.01263      1.16199      9.05211        -0.003918     -0.002262      0.023096
     -2.01263      5.80996      1.29316        -0.003918      0.002262     -0.023096
      6.03789      1.16199      9.05211         0.003918     -0.002262      0.023096
     -0.00000      2.32399      1.29316         0.000000     -0.004524     -0.023096
      4.02526      4.64797      9.05211        -0.000000      0.004524      0.023096
      4.02526      4.64797      3.87948         0.000000      0.095646      0.073834
     -0.00000      2.32399      6.46579        -0.000000     -0.095646     -0.073834
      2.01263      1.16199      3.87948        -0.082832     -0.047823      0.073834
      2.01263      5.80996      6.46579         0.082832      0.047823     -0.073834
      6.03789      1.16199      3.87948         0.082832     -0.047823      0.073834
     -2.01263      5.80996      6.46579        -0.082832      0.047823     -0.073834
      0.00000      4.64797      3.87948         0.000000     -0.000000     -0.002501
      4.02526      2.32399      6.46579        -0.000000     -0.000000      0.002501
      4.02526      2.32399      1.29316        -0.000000     -0.000000      0.034046
      0.00000      4.64797      9.05211         0.000000     -0.000000     -0.034046
      2.01263      3.48598      0.00000        -0.000000     -0.000000      0.000000
      4.02526      0.00000      0.00000        -0.000000     -0.000000      0.000000
     -2.01263      3.48598      0.00000        -0.000000     -0.000000      0.000000
      2.01263      3.48598      2.58632         0.003538     -0.002043      0.010979
      2.01263      3.48598      7.75895        -0.003538      0.002043     -0.010979
      4.02526      0.00000      2.58632        -0.000000      0.004086      0.010979
      4.02526      0.00000      7.75895         0.000000     -0.004086     -0.010979
     -2.01263      3.48598      2.58632        -0.003538     -0.002043      0.010979
     -2.01263      3.48598      7.75895         0.003538      0.002043     -0.010979
      0.00000      0.00000      0.00000         0.000000     -0.000000      0.000000
      0.00000      0.00000      2.58632        -0.000000     -0.000000      0.154132
      0.00000      0.00000      7.75895        -0.000000     -0.000000     -0.154132
      2.01263      3.48598      5.17264         0.000000     -0.000000      0.000000
      4.02526      0.00000      5.17264         0.000000     -0.000000      0.000000
     -2.01263      3.48598      5.17264        -0.000000     -0.000000      0.000000
      0.00000      0.00000      5.17264         0.000000     -0.000000      0.000000
 -----------------------------------------------------------------------------------
    total drift:                               -0.000007      0.000001     -0.000000


--------------------------------------------------------------------------------------------------------



  FREE ENERGIE OF THE ION-ELECTRON SYSTEM (eV)
  ---------------------------------------------------
  free  energy   TOTEN  =      -312.59789167 eV

  energy  without entropy=     -312.59042213  energy(sigma->0) =     -312.59540183
 


--------------------------------------------------------------------------------------------------------


    POTLOK:  cpu time    0.1820: real time    0.2361


--------------------------------------------------------------------------------------------------------


     LOOP+:  cpu time13308.6748: real time13363.4873
    4ORBIT:  cpu time    0.0000: real time    0.0000
 


 total charge     
 
# of ion       s       p       d       tot
------------------------------------------
    1        0.487   0.566   8.475   9.528
    2        0.487   0.566   8.475   9.528
    3        0.487   0.566   8.475   9.528
    4        0.487   0.566   8.475   9.528
    5        0.487   0.566   8.475   9.528
    6        0.487   0.566   8.475   9.528
    7        0.489   0.570   8.474   9.533
    8        0.489   0.570   8.474   9.533
    9        0.489   0.570   8.474   9.533
   10        0.489   0.570   8.474   9.533
   11        0.489   0.570   8.474   9.533
   12        0.489   0.570   8.474   9.533
   13        0.489   0.570   8.473   9.533
   14        0.489   0.570   8.473   9.533
   15        0.489   0.568   8.475   9.533
   16        0.489   0.568   8.475   9.533
   17        1.085   1.313   0.141   2.539
   18        1.085   1.313   0.141   2.539
   19        1.085   1.313   0.141   2.539
   20        1.085   1.313   0.141   2.539
   21        1.085   1.313   0.141   2.539
   22        1.085   1.313   0.141   2.539
   23        1.085   1.308   0.141   2.534
   24        1.085   1.308   0.141   2.534
   25        1.085   1.308   0.141   2.534
   26        1.085   1.308   0.141   2.534
   27        1.085   1.308   0.141   2.534
   28        1.085   1.308   0.141   2.534
   29        1.086   1.312   0.141   2.538
   30        1.086   1.312   0.141   2.538
   31        1.085   1.314   0.141   2.539
   32        1.085   1.314   0.141   2.539
   33        0.293   0.352   5.121   5.766
   34        0.293   0.352   5.121   5.766
   35        0.293   0.352   5.121   5.766
   36        0.292   0.352   5.122   5.766
   37        0.292   0.352   5.122   5.766
   38        0.292   0.352   5.122   5.766
   39        0.292   0.352   5.122   5.766
   40        0.292   0.352   5.122   5.766
   41        0.292   0.352   5.122   5.766
   42        0.292   0.351   5.129   5.771
   43        0.292   0.352   5.110   5.755
   44        0.292   0.352   5.110   5.755
   45        0.293   0.353   5.120   5.766
   46        0.293   0.353   5.120   5.766
   47        0.293   0.353   5.120   5.766
   48        0.370   0.459   6.311   7.140
--------------------------------------------------
tot         29.933  35.801 220.962 286.696
 


 magnetization (x)
 
# of ion       s       p       d       tot
------------------------------------------
    1       -0.022  -0.034   0.155   0.099
    2       -0.022  -0.034   0.155   0.099
    3       -0.022  -0.034   0.155   0.099
    4       -0.022  -0.034   0.155   0.099
    5       -0.022  -0.034   0.155   0.099
    6       -0.022  -0.034   0.155   0.099
    7       -0.023  -0.034   0.159   0.102
    8       -0.023  -0.034   0.159   0.102
    9       -0.023  -0.034   0.159   0.102
   10       -0.023  -0.034   0.159   0.102
   11       -0.023  -0.034   0.159   0.102
   12       -0.023  -0.034   0.159   0.102
   13       -0.023  -0.033   0.153   0.096
   14       -0.023  -0.033   0.153   0.096
   15       -0.022  -0.032   0.163   0.109
   16       -0.022  -0.032   0.163   0.109
   17       -0.016  -0.091   0.005  -0.102
   18       -0.016  -0.091   0.005  -0.102
   19       -0.016  -0.091   0.005  -0.102
   20       -0.016  -0.091   0.005  -0.102
   21       -0.016  -0.091   0.005  -0.102
   22       -0.016  -0.091   0.005  -0.102
   23       -0.015  -0.087   0.004  -0.098
   24       -0.015  -0.087   0.004  -0.098
   25       -0.015  -0.087   0.004  -0.098
   26       -0.015  -0.087   0.004  -0.098
   27       -0.015  -0.087   0.004  -0.098
   28       -0.015  -0.087   0.004  -0.098
   29       -0.015  -0.092   0.005  -0.102
   30       -0.015  -0.092   0.005  -0.102
   31       -0.016  -0.093   0.005  -0.104
   32       -0.016  -0.093   0.005  -0.104
   33        0.019   0.015   2.650   2.683
   34        0.019   0.015   2.650   2.683
   35        0.019   0.015   2.650   2.683
   36        0.019   0.015   2.643   2.676
   37        0.019   0.015   2.643   2.676
   38        0.019   0.015   2.643   2.676
   39        0.019   0.015   2.643   2.676
   40        0.019   0.015   2.643   2.676
   41        0.019   0.015   2.643   2.676
   42        0.018   0.014   2.584   2.615
   43        0.020   0.016   2.740   2.775
   44        0.020   0.016   2.740   2.775
   45        0.018   0.015   2.649   2.681
   46        0.018   0.015   2.649   2.681
   47        0.018   0.015   2.649   2.681
   48        0.014   0.003   2.154   2.172
--------------------------------------------------
tot         -0.313  -1.747  44.556  42.496
 

 total amount of memory used by VASP MPI-rank0   576554. kBytes
=======================================================================

   base      :      30000. kBytes
   nonl-proj :      85399. kBytes
   fftplans  :       3906. kBytes
   grid      :      11074. kBytes
   one-center:        248. kBytes
   wavefun   :     445927. kBytes
 
  
  
 General timing and accounting informations for this job:
 ========================================================
  
                  Total CPU time used (sec):    13565.116
                            User time (sec):    13422.173
                          System time (sec):      142.943
                         Elapsed time (sec):    13629.751
  
                   Maximum memory used (kb):      832424.
                   Average memory used (kb):           0.
  
                          Minor page faults:        72289
                          Major page faults:          691
                 Voluntary context switches:         7195
