 running on   24 total cores
 distrk:  each k-point on   24 cores,    1 groups
 distr:  one band on    6 cores,    4 groups
 using from now: INCAR     
 vasp.6.1.1 19Jun20 (build Nov 30 2020 11:51:22) complex                        
  
 POSCAR found type information on POSCAR NiGeMnFe
 POSCAR found :  4 types and      48 ions
 scaLAPACK will be used
 -----------------------------------------------------------------------------
|                                                                             |
|               ----> ADVICE to this user running VASP <----                  |
|                                                                             |
|     You have a (more or less) 'large supercell' and for larger cells it     |
|     might be more efficient to use real-space projection operators.         |
|     Therefore, try LREAL= Auto in the INCAR file.                           |
|     Mind: For very accurate calculation, you might also keep the            |
|     reciprocal projection scheme (i.e. LREAL=.FALSE.).                      |
|                                                                             |
 -----------------------------------------------------------------------------

 LDA part: xc-table for Pade appr. of Perdew
 POSCAR, INCAR and KPOINTS ok, starting setup
 FFT: planning ...
 WAVECAR not read
 entering main loop
       N       E                     dE             d eps       ncg     rms          rms(c)
DAV:   1     0.279360484441E+04    0.27936E+04   -0.10891E+05 99376   0.104E+03
DAV:   2     0.167901111170E+03   -0.26257E+04   -0.23429E+04 99360   0.265E+02
DAV:   3    -0.264865192420E+03   -0.43277E+03   -0.35565E+03 99592   0.123E+02
DAV:   4    -0.295915657836E+03   -0.31050E+02   -0.29667E+02121912   0.389E+01
DAV:   5    -0.296717292453E+03   -0.80163E+00   -0.79976E+00121504   0.650E+00    0.100E+02
DAV:   6    -0.380048475120E+03   -0.83331E+02   -0.22928E+02125824   0.104E+02    0.112E+02
DAV:   7    -0.313496878156E+03    0.66552E+02   -0.18153E+02122376   0.895E+01    0.679E+01
DAV:   8    -0.336046197926E+03   -0.22549E+02   -0.41197E+01141672   0.490E+01    0.829E+01
DAV:   9    -0.318802087037E+03    0.17244E+02   -0.34537E+01140816   0.386E+01    0.438E+01
DAV:  10    -0.323420459732E+03   -0.46184E+01   -0.31593E+01128680   0.489E+01    0.624E+01
DAV:  11    -0.306460656397E+03    0.16960E+02   -0.12842E+01153336   0.358E+01    0.247E+01
DAV:  12    -0.314132481702E+03   -0.76718E+01   -0.11082E+01140496   0.201E+01    0.289E+01
DAV:  13    -0.310892430878E+03    0.32401E+01   -0.41430E+00138680   0.208E+01    0.133E+01
DAV:  14    -0.313519696253E+03   -0.26273E+01   -0.35946E+00153936   0.159E+01    0.208E+01
DAV:  15    -0.312805484349E+03    0.71421E+00   -0.30704E+00146784   0.147E+01    0.801E+00
DAV:  16    -0.312956377894E+03   -0.15089E+00   -0.10621E+00168528   0.625E+00    0.652E+00
DAV:  17    -0.312918776807E+03    0.37601E-01   -0.36127E-01131776   0.517E+00    0.480E+00
DAV:  18    -0.313016904629E+03   -0.98128E-01   -0.16427E-01144448   0.283E+00    0.406E+00
DAV:  19    -0.313081895731E+03   -0.64991E-01   -0.13081E-01138168   0.311E+00    0.385E+00
DAV:  20    -0.313108379430E+03   -0.26484E-01   -0.55722E-02137928   0.228E+00    0.301E+00
DAV:  21    -0.313157937007E+03   -0.49558E-01   -0.70383E-02175304   0.217E+00    0.300E+00
DAV:  22    -0.313137778145E+03    0.20159E-01   -0.55571E-02151608   0.229E+00    0.229E+00
DAV:  23    -0.313120230271E+03    0.17548E-01   -0.35915E-02131152   0.113E+00    0.719E-01
DAV:  24    -0.313123468144E+03   -0.32379E-02   -0.62769E-03164672   0.474E-01    0.741E-01
DAV:  25    -0.313123899387E+03   -0.43124E-03   -0.24208E-03131288   0.400E-01    0.665E-01
DAV:  26    -0.313123804228E+03    0.95159E-04   -0.10961E-03157208   0.343E-01    0.553E-01
DAV:  27    -0.313123691646E+03    0.11258E-03   -0.14555E-03146472   0.175E-01    0.318E-01
DAV:  28    -0.313124160381E+03   -0.46873E-03   -0.46436E-04143248   0.224E-01    0.298E-01
DAV:  29    -0.313124151017E+03    0.93641E-05   -0.22776E-04142112   0.164E-01    0.193E-01
DAV:  30    -0.313124065935E+03    0.85081E-04   -0.24281E-04142224   0.642E-02    0.705E-02
DAV:  31    -0.313124086216E+03   -0.20280E-04   -0.60307E-05165560   0.362E-02    0.293E-02
DAV:  32    -0.313124087363E+03   -0.11476E-05   -0.14380E-05130880   0.127E-02    0.192E-02
DAV:  33    -0.313124087229E+03    0.13447E-06   -0.24494E-06 74312   0.660E-03
   1 F= -.31312409E+03 E0= -.31310985E+03  d E =-.427212E-01  mag=    47.8872
