 vasp.6.1.1 19Jun20 (build Nov 30 2020 11:51:22) complex                        
  
 executed on             LinuxIFC date 2021.03.25  22:23:13
 running on   24 total cores
 distrk:  each k-point on   24 cores,    1 groups
 distr:  one band on NCORE=   6 cores,    4 groups


--------------------------------------------------------------------------------------------------------


 INCAR:
 POTCAR:    PAW_PBE Ni 02Aug2007                  
 POTCAR:    PAW_PBE Ge 05Jan2001                  
 POTCAR:    PAW_PBE Mn 06Sep2000                  
 POTCAR:    PAW_PBE Fe 06Sep2000                  
 POTCAR:    PAW_PBE Ni 02Aug2007                  
   SHA256 =  0534bc51ca8003dfef23f56753fef9fdd3e22eac8d719fccacb59f3e6b7a69c7 Ni/POTCAR             
   COPYR  = (c) Copyright 02Aug2007 Georg Kresse                                                    
   COPYR  = This file is part of the software VASP. Any use, copying, and all other rights are regul
   COPYR  = If you do not have a valid VASP license, you may not use, copy or distribute this file. 
   VRHFIN =Ni:                                                                                      
   LEXCH  = PE                                                                                      
   EATOM  =  1077.6739 eV,   79.2068 Ry                                                             
                                                                                                    
   TITEL  = PAW_PBE Ni 02Aug2007                                                                    
   LULTRA =        F    use ultrasoft PP ?                                                          
   IUNSCR =        1    unscreen: 0-lin 1-nonlin 2-no                                               
   RPACOR =    2.000    partial core radius                                                         
   POMASS =   58.690; ZVAL   =   10.000    mass and valenz                                          
   RCORE  =    2.300    outmost cutoff radius                                                       
   RWIGS  =    2.430; RWIGS  =    1.286    wigner-seitz radius (au A)                               
   ENMAX  =  269.532; ENMIN  =  202.149 eV                                                          
   RCLOC  =    1.201    cutoff for local pot                                                        
   LCOR   =        T    correct aug charges                                                         
   LPAW   =        T    paw PP                                                                      
   EAUG   =  544.565                                                                                
   DEXC   =    0.000                                                                                
   RMAX   =    2.357    core radius for proj-oper                                                   
   RAUG   =    1.300    factor for augmentation sphere                                              
   RDEP   =    2.390    radius for radial grids                                                     
   RDEPT  =    1.838    core radius for aug-charge                                                  
                                                                                                    
   Atomic configuration                                                                             
    9 entries                                                                                       
     n  l   j            E        occ.                                                              
     1  0  0.50     -8206.4253   2.0000                                                             
     2  0  0.50      -976.1748   2.0000                                                             
     2  1  1.50      -839.0571   6.0000                                                             
     3  0  0.50      -105.9991   2.0000                                                             
     3  1  1.50       -66.4603   6.0000                                                             
     3  2  2.50        -4.6458   9.0000                                                             
     4  0  0.50        -4.4926   1.0000                                                             
     4  1  1.50        -4.0817   0.0000                                                             
     4  3  2.50        -1.3606   0.0000                                                             
   Description                                                                                      
     l       E           TYP  RCUT    TYP  RCUT                                                     
     2     -4.6457903     23  2.300                                                                 
     2     -6.0063729     23  2.300                                                                 
     0     -4.4925590     23  2.300                                                                 
     0      5.0102601     23  2.300                                                                 
     1     -2.7211652     23  2.300                                                                 
     1     16.5183231     23  2.300                                                                 
  local pseudopotential read in
  partial core-charges read in
  partial kinetic energy density read in
  atomic valenz-charges read in
  non local Contribution for L=           2  read in
    real space projection operators read in
  non local Contribution for L=           2  read in
    real space projection operators read in
  non local Contribution for L=           0  read in
    real space projection operators read in
  non local Contribution for L=           0  read in
    real space projection operators read in
  non local Contribution for L=           1  read in
    real space projection operators read in
  non local Contribution for L=           1  read in
    real space projection operators read in
    PAW grid and wavefunctions read in
 
   number of l-projection  operators is LMAX  =           6
   number of lm-projection operators is LMMAX =          18
 
 POTCAR:    PAW_PBE Ge 05Jan2001                  
   SHA256 =  7ff11deedcda39f1950abeda971a84a1f98a719a97bc9679a0df455c008734f8 Ge/POTCAR             
   COPYR  = (c) Copyright 05Jan2001 Georg Kresse                                                    
   COPYR  = This file is part of the software VASP. Any use, copying, and all other rights are regul
   COPYR  = If you do not have a valid VASP license, you may not use, copy or distribute this file. 
   VRHFIN =Ge: s2p2                                                                                 
   LEXCH  = PE                                                                                      
   EATOM  =   104.9960 eV,    7.7170 Ry                                                             
                                                                                                    
   TITEL  = PAW_PBE Ge 05Jan2001                                                                    
   LULTRA =        F    use ultrasoft PP ?                                                          
   IUNSCR =        1    unscreen: 0-lin 1-nonlin 2-no                                               
   RPACOR =    2.170    partial core radius                                                         
   POMASS =   72.610; ZVAL   =    4.000    mass and valenz                                          
   RCORE  =    2.300    outmost cutoff radius                                                       
   RWIGS  =    2.300; RWIGS  =    1.217    wigner-seitz radius (au A)                               
   ENMAX  =  173.807; ENMIN  =  130.355 eV                                                          
   ICORE  =        3    local potential                                                             
   LCOR   =        T    correct aug charges                                                         
   LPAW   =        T    paw PP                                                                      
   EAUG   =  385.843                                                                                
   DEXC   =    0.000                                                                                
   RMAX   =    2.342    core radius for proj-oper                                                   
   RAUG   =    1.300    factor for augmentation sphere                                              
   RDEP   =    2.318    radius for radial grids                                                     
   RDEPT  =    2.103    core radius for aug-charge                                                  
                                                                                                    
   Atomic configuration                                                                             
   10 entries                                                                                       
     n  l   j            E        occ.                                                              
     1  0  0.50    -10959.8463   2.0000                                                             
     2  0  0.50     -1371.6056   2.0000                                                             
     2  1  1.50     -1198.4791   6.0000                                                             
     3  0  0.50      -168.4733   2.0000                                                             
     3  1  1.50      -115.6019   6.0000                                                             
     3  2  2.50       -29.3106  10.0000                                                             
     4  0  0.50       -11.7309   2.0000                                                             
     4  1  0.50        -3.8952   2.0000                                                             
     4  2  1.50        -4.0817   0.0000                                                             
     4  3  2.50        -4.0817   0.0000                                                             
   Description                                                                                      
     l       E           TYP  RCUT    TYP  RCUT                                                     
     0    -11.7309493     23  2.300                                                                 
     0     -7.4578696     23  2.300                                                                 
     1     -3.8952261     23  2.300                                                                 
     1      6.1178114     23  2.300                                                                 
     2     -4.0817478     23  2.300                                                                 
     3     -1.3605826      7  2.300                                                                 
  local pseudopotential read in
  partial core-charges read in
  partial kinetic energy density read in
  atomic valenz-charges read in
  non local Contribution for L=           0  read in
    real space projection operators read in
  non local Contribution for L=           0  read in
    real space projection operators read in
  non local Contribution for L=           1  read in
    real space projection operators read in
  non local Contribution for L=           1  read in
    real space projection operators read in
  non local Contribution for L=           2  read in
    real space projection operators read in
    PAW grid and wavefunctions read in
 
   number of l-projection  operators is LMAX  =           5
   number of lm-projection operators is LMMAX =          13
 
 POTCAR:    PAW_PBE Mn 06Sep2000                  
   SHA256 =  791c87526310ff945dc83749a51ee60ee299d345ff72743aeb14609b9ed68bfc Mn/POTCAR             
   COPYR  = (c) Copyright 06Sep2000 Georg Kresse                                                    
   COPYR  = This file is part of the software VASP. Any use, copying, and all other rights are regul
   COPYR  = If you do not have a valid VASP license, you may not use, copy or distribute this file. 
   VRHFIN =Mn: d6 s1                                                                                
   LEXCH  = PE                                                                                      
   EATOM  =   416.7541 eV,   30.6306 Ry                                                             
                                                                                                    
   TITEL  = PAW_PBE Mn 06Sep2000                                                                    
   LULTRA =        F    use ultrasoft PP ?                                                          
   IUNSCR =        1    unscreen: 0-lin 1-nonlin 2-no                                               
   RPACOR =    2.000    partial core radius                                                         
   POMASS =   54.938; ZVAL   =    7.000    mass and valenz                                          
   RCORE  =    2.300    outmost cutoff radius                                                       
   RWIGS  =    2.500; RWIGS  =    1.323    wigner-seitz radius (au A)                               
   ENMAX  =  269.864; ENMIN  =  202.398 eV                                                          
   RCLOC  =    1.725    cutoff for local pot                                                        
   LCOR   =        T    correct aug charges                                                         
   LPAW   =        T    paw PP                                                                      
   EAUG   =  500.711                                                                                
   DEXC   =    0.000                                                                                
   RMAX   =    2.343    core radius for proj-oper                                                   
   RAUG   =    1.300    factor for augmentation sphere                                              
   RDEP   =    2.338    radius for radial grids                                                     
   RDEPT  =    1.911    core radius for aug-charge                                                  
                                                                                                    
   Atomic configuration                                                                             
    9 entries                                                                                       
     n  l   j            E        occ.                                                              
     1  0  0.50     -6424.8288   2.0000                                                             
     2  0  0.50      -739.1154   2.0000                                                             
     2  1  1.50      -625.3949   6.0000                                                             
     3  0  0.50       -81.6100   2.0000                                                             
     3  1  1.50       -50.4667   6.0000                                                             
     3  2  2.50        -3.3745   6.0000                                                             
     4  0  0.50        -4.1331   1.0000                                                             
     4  1  0.50        -4.0817   0.0000                                                             
     4  3  2.50        -1.3606   0.0000                                                             
   Description                                                                                      
     l       E           TYP  RCUT    TYP  RCUT                                                     
     2     -3.3744664     23  2.300                                                                 
     2     -4.7350490     23  2.300                                                                 
     0     -4.1331408     23  2.300                                                                 
     0      7.6656614     23  2.300                                                                 
     1     -2.7211652     23  2.300                                                                 
     1     20.4087390     23  2.300                                                                 
  local pseudopotential read in
  partial core-charges read in
  partial kinetic energy density read in
  atomic valenz-charges read in
  non local Contribution for L=           2  read in
    real space projection operators read in
  non local Contribution for L=           2  read in
    real space projection operators read in
  non local Contribution for L=           0  read in
    real space projection operators read in
  non local Contribution for L=           0  read in
    real space projection operators read in
  non local Contribution for L=           1  read in
    real space projection operators read in
  non local Contribution for L=           1  read in
    real space projection operators read in
    PAW grid and wavefunctions read in
 
   number of l-projection  operators is LMAX  =           6
   number of lm-projection operators is LMMAX =          18
 
 POTCAR:    PAW_PBE Fe 06Sep2000                  
   SHA256 =  cd5a22d9368cc8b5cc476bea79732366149640da08ac9009b0e1b7fc627eea28 Fe/POTCAR             
   COPYR  = (c) Copyright 06Sep2000 Georg Kresse                                                    
   COPYR  = This file is part of the software VASP. Any use, copying, and all other rights are regul
   COPYR  = If you do not have a valid VASP license, you may not use, copy or distribute this file. 
   VRHFIN =Fe:  d7 s1                                                                               
   LEXCH  = PE                                                                                      
   EATOM  =   594.3153 eV,   43.6809 Ry                                                             
                                                                                                    
   TITEL  = PAW_PBE Fe 06Sep2000                                                                    
   LULTRA =        F    use ultrasoft PP ?                                                          
   IUNSCR =        1    unscreen: 0-lin 1-nonlin 2-no                                               
   RPACOR =    2.000    partial core radius                                                         
   POMASS =   55.847; ZVAL   =    8.000    mass and valenz                                          
   RCORE  =    2.300    outmost cutoff radius                                                       
   RWIGS  =    2.460; RWIGS  =    1.302    wigner-seitz radius (au A)                               
   ENMAX  =  267.882; ENMIN  =  200.911 eV                                                          
   RCLOC  =    1.701    cutoff for local pot                                                        
   LCOR   =        T    correct aug charges                                                         
   LPAW   =        T    paw PP                                                                      
   EAUG   =  511.368                                                                                
   DEXC   =    0.000                                                                                
   RMAX   =    2.356    core radius for proj-oper                                                   
   RAUG   =    1.300    factor for augmentation sphere                                              
   RDEP   =    2.442    radius for radial grids                                                     
   RDEPT  =    1.890    core radius for aug-charge                                                  
                                                                                                    
   Atomic configuration                                                                             
    9 entries                                                                                       
     n  l   j            E        occ.                                                              
     1  0  0.50     -6993.8440   2.0000                                                             
     2  0  0.50      -814.6047   2.0000                                                             
     2  1  1.50      -693.3689   6.0000                                                             
     3  0  0.50       -89.4732   2.0000                                                             
     3  1  1.50       -55.6373   6.0000                                                             
     3  2  2.50        -3.8151   7.0000                                                             
     4  0  0.50        -4.2551   1.0000                                                             
     4  1  1.50        -3.4015   0.0000                                                             
     4  3  2.50        -1.3606   0.0000                                                             
   Description                                                                                      
     l       E           TYP  RCUT    TYP  RCUT                                                     
     2     -3.8151135     23  2.300                                                                 
     2     -5.1756961     23  2.300                                                                 
     0     -4.2550963     23  2.300                                                                 
     0      7.2035603     23  2.300                                                                 
     1     -2.7211652     23  2.300                                                                 
     1     18.4316424     23  2.300                                                                 
  local pseudopotential read in
  partial core-charges read in
  partial kinetic energy density read in
  atomic valenz-charges read in
  non local Contribution for L=           2  read in
    real space projection operators read in
  non local Contribution for L=           2  read in
    real space projection operators read in
  non local Contribution for L=           0  read in
    real space projection operators read in
  non local Contribution for L=           0  read in
    real space projection operators read in
  non local Contribution for L=           1  read in
    real space projection operators read in
  non local Contribution for L=           1  read in
    real space projection operators read in
    PAW grid and wavefunctions read in
 
   number of l-projection  operators is LMAX  =           6
   number of lm-projection operators is LMMAX =          18
 
 -----------------------------------------------------------------------------
|                                                                             |
|               ----> ADVICE to this user running VASP <----                  |
|                                                                             |
|     You have a (more or less) 'large supercell' and for larger cells it     |
|     might be more efficient to use real-space projection operators.         |
|     Therefore, try LREAL= Auto in the INCAR file.                           |
|     Mind: For very accurate calculation, you might also keep the            |
|     reciprocal projection scheme (i.e. LREAL=.FALSE.).                      |
|                                                                             |
 -----------------------------------------------------------------------------

  PAW_PBE Ni 02Aug2007                  :
 energy of atom  1       EATOM=-1077.6739
 kinetic energy error for atom=    0.0038 (will be added to EATOM!!)
  PAW_PBE Ge 05Jan2001                  :
 energy of atom  2       EATOM= -104.9960
 kinetic energy error for atom=    0.0003 (will be added to EATOM!!)
  PAW_PBE Mn 06Sep2000                  :
 energy of atom  3       EATOM= -416.7541
 kinetic energy error for atom=    0.0033 (will be added to EATOM!!)
  PAW_PBE Fe 06Sep2000                  :
 energy of atom  4       EATOM= -594.3153
 kinetic energy error for atom=    0.0034 (will be added to EATOM!!)
 
 
 POSCAR: MnFeNiGe_hex
  positions in direct lattice
  velocities in cartesian coordinates
 exchange correlation table for  LEXCH =        8
   RHO(1)=    0.500       N(1)  =     2000
   RHO(2)=  100.500       N(2)  =     4000
 


--------------------------------------------------------------------------------------------------------


 ion  position               nearest neighbor table
   1  0.667  0.833  0.375-  27 2.37  29 2.37  23 2.37  17 2.64  26 2.64  36 2.71  45 2.71  38 2.71
                            46 2.71  43 2.71  48 2.71
   2  0.333  0.167  0.625-  28 2.37  30 2.37  24 2.37  25 2.64  18 2.64  39 2.71  44 2.71  46 2.71
                            48 2.71  37 2.71  45 2.71
   3  0.167  0.833  0.375-  25 2.37  23 2.37  29 2.37  28 2.64  19 2.64  40 2.71  47 2.71  43 2.71
                            48 2.71  38 2.71  46 2.71
   4  0.833  0.167  0.625-  26 2.37  24 2.37  30 2.37  27 2.64  20 2.64  39 2.71  44 2.71  46 2.71
                            48 2.71  47 2.71  41 2.71
   5  0.167  0.333  0.375-  29 2.37  27 2.37  25 2.37  24 2.64  21 2.64  43 2.71  48 2.71  47 2.71
                            40 2.71  36 2.71  45 2.71
   6  0.833  0.667  0.625-  30 2.37  28 2.37  26 2.37  23 2.64  22 2.64  37 2.71  41 2.71  45 2.71
                            47 2.71  44 2.71  48 2.71
   7  0.833  0.667  0.125-  31 2.37  19 2.37  17 2.37  23 2.64  22 2.64  33 2.71  35 2.71  36 2.71
                            40 2.71  42 2.71  43 2.71
   8  0.167  0.333  0.875-  18 2.37  32 2.37  20 2.37  24 2.64  21 2.64  42 2.71  44 2.71  35 2.71
                            41 2.71  37 2.71  33 2.71
   9  0.333  0.167  0.125-  19 2.37  31 2.37  21 2.37  25 2.64  18 2.64  34 2.71  38 2.71  42 2.71
                            43 2.71  36 2.71  33 2.71
  10  0.667  0.833  0.875-  20 2.37  32 2.37  22 2.37  26 2.64  17 2.64  33 2.71  37 2.71  34 2.71
                            39 2.71  42 2.71  44 2.71
  11  0.833  0.167  0.125-  17 2.37  21 2.37  31 2.37  27 2.64  20 2.64  34 2.71  38 2.71  42 2.71
                            43 2.71  35 2.71  40 2.71
  12  0.167  0.833  0.875-  18 2.37  22 2.37  32 2.37  28 2.64  19 2.64  35 2.71  41 2.71  42 2.71
                            44 2.71  39 2.71  34 2.71
  13  0.333  0.667  0.125-  21 2.37  17 2.37  19 2.37  29 2.64  32 2.64  33 2.71  35 2.71  36 2.71
                            40 2.71  38 2.71  34 2.71
  14  0.667  0.333  0.875-  22 2.37  20 2.37  18 2.37  30 2.64  31 2.64  34 2.71  39 2.71  37 2.71
                            33 2.71  35 2.71  41 2.71
  15  0.667  0.333  0.375-  23 2.37  25 2.37  27 2.37  30 2.64  31 2.64  38 2.71  46 2.71  45 2.71
                            36 2.71  40 2.71  47 2.71
  16  0.333  0.667  0.625-  24 2.37  26 2.37  28 2.37  29 2.64  32 2.64  37 2.71  41 2.71  45 2.71
                            47 2.71  46 2.71  39 2.71
  17  0.667  0.833  0.125-  11 2.37  13 2.37   7 2.37   1 2.64  10 2.64  33 2.71  36 2.71  34 2.71
                            38 2.71  42 2.71  43 2.71
  18  0.333  0.167  0.875-   8 2.37  12 2.37  14 2.37   2 2.64   9 2.64  42 2.71  44 2.71  33 2.71
                            37 2.71  34 2.71  39 2.71
  19  0.167  0.833  0.125-   9 2.37   7 2.37  13 2.37  12 2.64   3 2.64  35 2.71  40 2.71  42 2.71
                            43 2.71  38 2.71  34 2.71
  20  0.833  0.167  0.875-  10 2.37   8 2.37  14 2.37  11 2.64   4 2.64  34 2.71  39 2.71  42 2.71
                            44 2.71  35 2.71  41 2.71
  21  0.167  0.333  0.125-  13 2.37  11 2.37   9 2.37   8 2.64   5 2.64  42 2.71  43 2.71  35 2.71
                            40 2.71  36 2.71  33 2.71
  22  0.833  0.667  0.875-  14 2.37  12 2.37  10 2.37   7 2.64   6 2.64  33 2.71  35 2.71  37 2.71
                            41 2.71  42 2.71  44 2.71
  23  0.833  0.667  0.375-  15 2.37   3 2.37   1 2.37   7 2.64   6 2.64  36 2.71  40 2.71  45 2.71
                            47 2.71  43 2.71  48 2.71
  24  0.167  0.333  0.625-  16 2.37   4 2.37   2 2.37   8 2.64   5 2.64  44 2.71  48 2.71  47 2.71
                            41 2.71  37 2.71  45 2.71
  25  0.333  0.167  0.375-   3 2.37  15 2.37   5 2.37   9 2.64   2 2.64  38 2.71  43 2.71  46 2.71
                            48 2.71  36 2.71  45 2.71
  26  0.667  0.833  0.625-   4 2.37  16 2.37   6 2.37  10 2.64   1 2.64  37 2.71  45 2.71  39 2.71
                            46 2.71  44 2.71  48 2.71
  27  0.833  0.167  0.375-   1 2.37   5 2.37  15 2.37  11 2.64   4 2.64  38 2.71  43 2.71  46 2.71
                            48 2.71  47 2.71  40 2.71
  28  0.167  0.833  0.625-   2 2.37   6 2.37  16 2.37  12 2.64   3 2.64  41 2.71  47 2.71  44 2.71
                            48 2.71  39 2.71  46 2.71
  29  0.333  0.667  0.375-   5 2.37   1 2.37   3 2.37  13 2.64  16 2.64  36 2.71  40 2.71  45 2.71
                            47 2.71  46 2.71  38 2.71
  30  0.667  0.333  0.625-   6 2.37   2 2.37   4 2.37  14 2.64  15 2.64  39 2.71  46 2.71  45 2.71
                            37 2.71  41 2.71  47 2.71
  31  0.667  0.333  0.125-   7 2.37   9 2.37  11 2.37  14 2.64  15 2.64  34 2.71  38 2.71  36 2.71
                            33 2.71  35 2.71  40 2.71
  32  0.333  0.667  0.875-   8 2.37  10 2.37  12 2.37  13 2.64  16 2.64  33 2.71  35 2.71  37 2.71
                            41 2.71  39 2.71  34 2.71
  33  0.500  0.500  0.000-  36 2.64  37 2.64  10 2.71  17 2.71   7 2.71  22 2.71  31 2.71  32 2.71
                            13 2.71  14 2.71   9 2.71  18 2.71  21 2.71   8 2.71
  34  0.500  0.000  0.000-  38 2.64  39 2.64  14 2.71  31 2.71  17 2.71  20 2.71  10 2.71  11 2.71
                             9 2.71  13 2.71  32 2.71  19 2.71  12 2.71  18 2.71
  35  0.000  0.500  0.000-  40 2.64  41 2.64  12 2.71  19 2.71   8 2.71  21 2.71  22 2.71  32 2.71
                             7 2.71  13 2.71  20 2.71  11 2.71  31 2.71  14 2.71
  36  0.500  0.500  0.250-  33 2.64  45 2.64   1 2.71  17 2.71   7 2.71  23 2.71  29 2.71  31 2.71
                            13 2.71  15 2.71   9 2.71  25 2.71   5 2.71  21 2.71
  37  0.500  0.500  0.750-  33 2.64  45 2.64  10 2.71  26 2.71  22 2.71   6 2.71  30 2.71  32 2.71
                            14 2.71  16 2.71   2 2.71  18 2.71  24 2.71   8 2.71
  38  0.500  0.000  0.250-  34 2.64  46 2.64  15 2.71  31 2.71  17 2.71  25 2.71  27 2.71   9 2.71
                            11 2.71   1 2.71  29 2.71  13 2.71   3 2.71  19 2.71
  39  0.500  0.000  0.750-  34 2.64  46 2.64  14 2.71  30 2.71  20 2.71  26 2.71   4 2.71  10 2.71
                             2 2.71  16 2.71  32 2.71  12 2.71  28 2.71  18 2.71
  40  0.000  0.500  0.250-  35 2.64  47 2.64   3 2.71  19 2.71   5 2.71  21 2.71  23 2.71  29 2.71
                             7 2.71  13 2.71  27 2.71  11 2.71  15 2.71  31 2.71
  41  0.000  0.500  0.750-  35 2.64  47 2.64  12 2.71  28 2.71  22 2.71  24 2.71   8 2.71  32 2.71
                             6 2.71  16 2.71   4 2.71  20 2.71  30 2.71  14 2.71
  42  0.000  0.000  0.000-  43 2.64  44 2.64  18 2.71   8 2.71  21 2.71  19 2.71  20 2.71  11 2.71
                            12 2.71   9 2.71   7 2.71  22 2.71  17 2.71  10 2.71
  43  0.000  0.000  0.250-  42 2.64  48 2.64   5 2.71  21 2.71  19 2.71   3 2.71  25 2.71  27 2.71
                             9 2.71  11 2.71   7 2.71  23 2.71  17 2.71   1 2.71
  44  0.000  0.000  0.750-  42 2.64  48 2.64  18 2.71   8 2.71  24 2.71  20 2.71   2 2.71  28 2.71
                            12 2.71   4 2.71   6 2.71  22 2.71  26 2.71  10 2.71
  45  0.500  0.500  0.500-  36 2.64  37 2.64   1 2.71  26 2.71  23 2.71   6 2.71  29 2.71  30 2.71
                            15 2.71  16 2.71  25 2.71   2 2.71   5 2.71  24 2.71
  46  0.500  0.000  0.500-  38 2.64  39 2.64  15 2.71  30 2.71  25 2.71  26 2.71  27 2.71   2 2.71
                             4 2.71   1 2.71  29 2.71  16 2.71   3 2.71  28 2.71
  47  0.000  0.500  0.500-  40 2.64  41 2.64   3 2.71  28 2.71  23 2.71  24 2.71   5 2.71  29 2.71
                             6 2.71  16 2.71   4 2.71  27 2.71  15 2.71  30 2.71
  48  0.000  0.000  0.500-  43 2.64  44 2.64   5 2.71  24 2.71   3 2.71  25 2.71  27 2.71  28 2.71
                             4 2.71   2 2.71   6 2.71  23 2.71   1 2.71  26 2.71
 
  LATTYP: Found a hexagonal cell.
 ALAT       =     8.2139854094
 C/A-ratio  =     1.2850434344
  
  Lattice vectors:
  
 A1 = (   8.2139854094,   0.0000000000,   0.0000000000)
 A2 = (  -4.1069927047,   7.1135200308,   0.0000000000)
 A3 = (   0.0000000000,   0.0000000000,  10.5553280203)


Analysis of symmetry for initial positions (statically):
=====================================================================
 Subroutine PRICEL returns:
 Original cell was already a primitive cell.
 

 Routine SETGRP: Setting up the symmetry group for a 
 hexagonal supercell.


 Subroutine GETGRP returns: Found 12 space group operations
 (whereof 12 operations were pure point group operations)
 out of a pool of 24 trial point group operations.


The static configuration has the point symmetry D_3d.


Analysis of symmetry for dynamics (positions and initial velocities):
=====================================================================
 Subroutine PRICEL returns:
 Original cell was already a primitive cell.
 

 Routine SETGRP: Setting up the symmetry group for a 
 hexagonal supercell.


 Subroutine GETGRP returns: Found 12 space group operations
 (whereof 12 operations were pure point group operations)
 out of a pool of 24 trial point group operations.


The dynamic configuration has the point symmetry D_3d.


Analysis of structural, dynamic, and magnetic symmetry:
=====================================================================
 Subroutine PRICEL returns:
 Original cell was already a primitive cell.
 

 Routine SETGRP: Setting up the symmetry group for a 
 hexagonal supercell.


 Subroutine GETGRP returns: Found 12 space group operations
 (whereof 12 operations were pure point group operations)
 out of a pool of 24 trial point group operations.


The magnetic configuration has the point symmetry D_3d.


 Subroutine INISYM returns: Found 12 space group operations
 (whereof 12 operations are pure point group operations),
 and found     1 'primitive' translations


----------------------------------------------------------------------------------------

                                     Primitive cell                                     

  volume of cell :     616.7515

  direct lattice vectors                    reciprocal lattice vectors
     8.213985409  0.000000000  0.000000000     0.121743581  0.070288689  0.000000000
    -4.106992705  7.113520031  0.000000000     0.000000000  0.140577379  0.000000000
     0.000000000  0.000000000 10.555328020     0.000000000  0.000000000  0.094738884

  length of vectors
     8.213985409  8.213985409 10.555328020     0.140577379  0.140577379  0.094738884

  position of ions in fractional coordinates (direct lattice)
     0.666666666  0.833333333  0.375000000
     0.333333333  0.166666666  0.625000000
     0.166666666  0.833333333  0.375000000
     0.833333333  0.166666666  0.625000000
     0.166666666  0.333333333  0.375000000
     0.833333333  0.666666666  0.625000000
     0.833333333  0.666666666  0.125000000
     0.166666666  0.333333333  0.875000000
     0.333333333  0.166666666  0.125000000
     0.666666666  0.833333333  0.875000000
     0.833333333  0.166666666  0.125000000
     0.166666666  0.833333333  0.875000000
     0.333333333  0.666666666  0.125000000
     0.666666666  0.333333333  0.875000000
     0.666666666  0.333333333  0.375000000
     0.333333333  0.666666666  0.625000000
     0.666666666  0.833333333  0.125000000
     0.333333313  0.166666666  0.875000000
     0.166666666  0.833333333  0.125000000
     0.833333333  0.166666666  0.875000000
     0.166666666  0.333333333  0.125000000
     0.833333333  0.666666666  0.875000000
     0.833333333  0.666666666  0.375000000
     0.166666666  0.333333333  0.625000000
     0.333333333  0.166666666  0.375000000
     0.666666666  0.833333333  0.625000000
     0.833333333  0.166666666  0.375000000
     0.166666666  0.833333333  0.625000000
     0.333333333  0.666666666  0.375000000
     0.666666666  0.333333333  0.625000000
     0.666666666  0.333333333  0.125000000
     0.333333333  0.666666666  0.875000000
     0.500000000  0.500000000  0.000000000
     0.500000000  0.000000000  0.000000000
     1.000000000  0.500000000  0.000000000
     0.500000000  0.500000000  0.250000000
     0.500000000  0.500000000  0.750000000
     0.500000000  0.000000000  0.250000000
     0.500000000  0.000000000  0.750000000
     1.000000000  0.500000000  0.250000000
     1.000000000  0.500000000  0.750000000
     0.000000000  0.000000000  0.000000000
     0.000000000  0.000000000  0.250000000
     0.000000000  0.000000000  0.750000000
     0.500000000  0.500000000  0.500000000
     0.500000000  0.000000000  0.500000000
     1.000000000  0.500000000  0.500000000
     0.000000000  0.000000000  0.500000000

  ion indices of the primitive-cell ions
   primitive index   ion index
                 1           1
                 2           2
                 3           3
                 4           4
                 5           5
                 6           6
                 7           7
                 8           8
                 9           9
                10          10
                11          11
                12          12
                13          13
                14          14
                15          15
                16          16
                17          17
                18          18
                19          19
                20          20
                21          21
                22          22
                23          23
                24          24
                25          25
                26          26
                27          27
                28          28
                29          29
                30          30
                31          31
                32          32
                33          33
                34          34
                35          35
                36          36
                37          37
                38          38
                39          39
                40          40
                41          41
                42          42
                43          43
                44          44
                45          45
                46          46
                47          47
                48          48

----------------------------------------------------------------------------------------

 
 
 KPOINTS: Auto                                    

Automatic generation of k-mesh.
Space group operators:
 irot       det(A)        alpha          n_x          n_y          n_z        tau_x        tau_y        tau_z
    1     1.000000     0.000000     1.000000     0.000000     0.000000     0.000000     0.000000     0.000000
    2    -1.000000     0.000000     1.000000     0.000000     0.000000     0.000000     0.000000     0.000000
    3     1.000000   120.000000     0.000000     0.000000    -1.000000     0.000000     0.000000     0.000000
    4    -1.000000   120.000000     0.000000     0.000000    -1.000000     0.000000     0.000000     0.000000
    5     1.000000   120.000000     0.000000     0.000000     1.000000     0.000000     0.000000     0.000000
    6    -1.000000   120.000000     0.000000     0.000000     1.000000     0.000000     0.000000     0.000000
    7     1.000000   180.000000     1.000000     0.000000     0.000000     0.000000     0.000000     0.000000
    8    -1.000000   180.000000     1.000000     0.000000     0.000000     0.000000     0.000000     0.000000
    9     1.000000   180.000000     0.500000    -0.866025     0.000000     0.000000     0.000000     0.000000
   10    -1.000000   180.000000     0.500000    -0.866025     0.000000     0.000000     0.000000     0.000000
   11     1.000000   180.000000    -0.500000    -0.866025     0.000000     0.000000     0.000000     0.000000
   12    -1.000000   180.000000    -0.500000    -0.866025     0.000000     0.000000     0.000000     0.000000
 
 Subroutine IBZKPT returns following result:
 ===========================================
 
 Found     69 irreducible k-points:
 
 Following reciprocal coordinates:
            Coordinates               Weight
  0.000000  0.000000  0.000000      1.000000
  0.111111  0.000000  0.000000      6.000000
  0.222222 -0.000000  0.000000      6.000000
  0.333333  0.000000  0.000000      6.000000
  0.444444 -0.000000  0.000000      6.000000
  0.111111  0.111111  0.000000      6.000000
  0.222222  0.111111  0.000000     12.000000
  0.333333  0.111111  0.000000     12.000000
  0.444444  0.111111  0.000000      6.000000
  0.222222  0.222222  0.000000      6.000000
  0.333333  0.222222  0.000000     12.000000
  0.333333  0.333333  0.000000      2.000000
  0.000000  0.000000  0.142857      2.000000
  0.111111  0.000000  0.142857      6.000000
  0.111111 -0.111111  0.142857      6.000000
  0.222222 -0.000000  0.142857      6.000000
  0.222222 -0.222222  0.142857      6.000000
  0.333333  0.000000  0.142857      6.000000
  0.333333 -0.333333  0.142857      6.000000
  0.444444 -0.000000  0.142857      6.000000
  0.444444 -0.444444  0.142857      6.000000
  0.111111  0.111111  0.142857     12.000000
  0.222222  0.111111  0.142857     12.000000
  0.333333 -0.222222  0.142857     12.000000
  0.333333  0.111111  0.142857     12.000000
  0.444444 -0.333333  0.142857     12.000000
  0.444444  0.111111  0.142857     12.000000
  0.222222  0.222222  0.142857     12.000000
  0.333333  0.222222  0.142857     12.000000
 -0.444444 -0.333333  0.142857     12.000000
  0.333333  0.333333  0.142857      4.000000
  0.000000  0.000000  0.285714      2.000000
  0.111111  0.000000  0.285714      6.000000
  0.111111 -0.111111  0.285714      6.000000
  0.222222 -0.000000  0.285714      6.000000
  0.222222 -0.222222  0.285714      6.000000
  0.333333  0.000000  0.285714      6.000000
  0.333333 -0.333333  0.285714      6.000000
  0.444444 -0.000000  0.285714      6.000000
  0.444444 -0.444444  0.285714      6.000000
  0.111111  0.111111  0.285714     12.000000
  0.222222  0.111111  0.285714     12.000000
  0.333333 -0.222222  0.285714     12.000000
  0.333333  0.111111  0.285714     12.000000
  0.444444 -0.333333  0.285714     12.000000
  0.444444  0.111111  0.285714     12.000000
  0.222222  0.222222  0.285714     12.000000
  0.333333  0.222222  0.285714     12.000000
 -0.444444 -0.333333  0.285714     12.000000
  0.333333  0.333333  0.285714      4.000000
  0.000000  0.000000  0.428571      2.000000
  0.111111  0.000000  0.428571      6.000000
  0.111111 -0.111111  0.428571      6.000000
  0.222222 -0.000000  0.428571      6.000000
  0.222222 -0.222222  0.428571      6.000000
  0.333333  0.000000  0.428571      6.000000
  0.333333 -0.333333  0.428571      6.000000
  0.444444 -0.000000  0.428571      6.000000
  0.444444 -0.444444  0.428571      6.000000
  0.111111  0.111111  0.428571     12.000000
  0.222222  0.111111  0.428571     12.000000
  0.333333 -0.222222  0.428571     12.000000
  0.333333  0.111111  0.428571     12.000000
  0.444444 -0.333333  0.428571     12.000000
  0.444444  0.111111  0.428571     12.000000
  0.222222  0.222222  0.428571     12.000000
  0.333333  0.222222  0.428571     12.000000
 -0.444444 -0.333333  0.428571     12.000000
  0.333333  0.333333  0.428571      4.000000
 
 Following cartesian coordinates:
            Coordinates               Weight
  0.000000  0.000000  0.000000      1.000000
  0.013595  0.007849  0.000000      6.000000
  0.027189  0.015698  0.000000      6.000000
  0.040784  0.023547  0.000000      6.000000
  0.054379  0.031396  0.000000      6.000000
  0.013595  0.023547  0.000000      6.000000
  0.027189  0.031396  0.000000     12.000000
  0.040784  0.039245  0.000000     12.000000
  0.054379  0.047093  0.000000      6.000000
  0.027189  0.047093  0.000000      6.000000
  0.040784  0.054942  0.000000     12.000000
  0.040784  0.070640  0.000000      2.000000
  0.000000  0.000000  0.013602      2.000000
  0.013595  0.007849  0.013602      6.000000
  0.013595 -0.007849  0.013602      6.000000
  0.027189  0.015698  0.013602      6.000000
  0.027189 -0.015698  0.013602      6.000000
  0.040784  0.023547  0.013602      6.000000
  0.040784 -0.023547  0.013602      6.000000
  0.054379  0.031396  0.013602      6.000000
  0.054379 -0.031396  0.013602      6.000000
  0.013595  0.023547  0.013602     12.000000
  0.027189  0.031396  0.013602     12.000000
  0.040784 -0.007849  0.013602     12.000000
  0.040784  0.039245  0.013602     12.000000
  0.054379 -0.015698  0.013602     12.000000
  0.054379  0.047093  0.013602     12.000000
  0.027189  0.047093  0.013602     12.000000
  0.040784  0.054942  0.013602     12.000000
 -0.054379 -0.078489  0.013602     12.000000
  0.040784  0.070640  0.013602      4.000000
  0.000000  0.000000  0.027204      2.000000
  0.013595  0.007849  0.027204      6.000000
  0.013595 -0.007849  0.027204      6.000000
  0.027189  0.015698  0.027204      6.000000
  0.027189 -0.015698  0.027204      6.000000
  0.040784  0.023547  0.027204      6.000000
  0.040784 -0.023547  0.027204      6.000000
  0.054379  0.031396  0.027204      6.000000
  0.054379 -0.031396  0.027204      6.000000
  0.013595  0.023547  0.027204     12.000000
  0.027189  0.031396  0.027204     12.000000
  0.040784 -0.007849  0.027204     12.000000
  0.040784  0.039245  0.027204     12.000000
  0.054379 -0.015698  0.027204     12.000000
  0.054379  0.047093  0.027204     12.000000
  0.027189  0.047093  0.027204     12.000000
  0.040784  0.054942  0.027204     12.000000
 -0.054379 -0.078489  0.027204     12.000000
  0.040784  0.070640  0.027204      4.000000
  0.000000  0.000000  0.040805      2.000000
  0.013595  0.007849  0.040805      6.000000
  0.013595 -0.007849  0.040805      6.000000
  0.027189  0.015698  0.040805      6.000000
  0.027189 -0.015698  0.040805      6.000000
  0.040784  0.023547  0.040805      6.000000
  0.040784 -0.023547  0.040805      6.000000
  0.054379  0.031396  0.040805      6.000000
  0.054379 -0.031396  0.040805      6.000000
  0.013595  0.023547  0.040805     12.000000
  0.027189  0.031396  0.040805     12.000000
  0.040784 -0.007849  0.040805     12.000000
  0.040784  0.039245  0.040805     12.000000
  0.054379 -0.015698  0.040805     12.000000
  0.054379  0.047093  0.040805     12.000000
  0.027189  0.047093  0.040805     12.000000
  0.040784  0.054942  0.040805     12.000000
 -0.054379 -0.078489  0.040805     12.000000
  0.040784  0.070640  0.040805      4.000000
 


--------------------------------------------------------------------------------------------------------




 Dimension of arrays:
   k-points           NKPTS =     69   k-points in BZ     NKDIM =     69   number of bands    NBANDS=    360
   number of dos      NEDOS =    301   number of ions     NIONS =     48
   non local maximal  LDIM  =      6   non local SUM 2l+1 LMDIM =     18
   total plane-waves  NPLWV = 288000
   max r-space proj   IRMAX =      1   max aug-charges    IRDMAX=  25576
   dimension x,y,z NGX =    60 NGY =   60 NGZ =   80
   dimension x,y,z NGXF=   120 NGYF=  120 NGZF=  160
   support grid    NGXF=   120 NGYF=  120 NGZF=  160
   ions per type =              16  16  15   1
   NGX,Y,Z   is equivalent  to a cutoff of  12.14, 12.14, 12.60 a.u.
   NGXF,Y,Z  is equivalent  to a cutoff of  24.29, 24.29, 25.20 a.u.

 SYSTEM =  MnFeNiGe_mag_hex-scf                    
 POSCAR =  MnFeNiGe_hex                            

 Startparameter for this run:
   NWRITE =      2    write-flag & timer
   PREC   = accura    normal or accurate (medium, high low for compatibility)
   ISTART =      0    job   : 0-new  1-cont  2-samecut
   ICHARG =      2    charge: 1-file 2-atom 10-const
   ISPIN  =      2    spin polarized calculation?
   LNONCOLLINEAR =      F non collinear calculations
   LSORBIT =      F    spin-orbit coupling
   INIWAV =      1    electr: 0-lowe 1-rand  2-diag
   LASPH  =      F    aspherical Exc in radial PAW
   METAGGA=      F    non-selfconsistent MetaGGA calc.

 Electronic Relaxation 1
   ENCUT  =  450.0 eV  33.07 Ry    5.75 a.u.  14.21 14.21 18.26*2*pi/ulx,y,z
   ENINI  =  450.0     initial cutoff
   ENAUG  =  544.6 eV  augmentation charge cutoff
   NELM   =     60;   NELMIN=  5; NELMDL= -5     # of ELM steps 
   EDIFF  = 0.1E-05   stopping-criterion for ELM
   LREAL  =      F    real-space projection
   NLSPLINE    = F    spline interpolate recip. space projectors
   LCOMPAT=      F    compatible to vasp.4.4
   GGA_COMPAT  = T    GGA compatible to vasp.4.4-vasp.4.6
   LMAXPAW     = -100 max onsite density
   LMAXMIX     =    2 max onsite mixed and CHGCAR
   VOSKOWN=      0    Vosko Wilk Nusair interpolation
   ROPT   =    0.00000   0.00000   0.00000   0.00000
 Ionic relaxation
   EDIFFG = 0.1E-04   stopping-criterion for IOM
   NSW    =      0    number of steps for IOM
   NBLOCK =      1;   KBLOCK =      1    inner block; outer block 
   IBRION =     -1    ionic relax: 0-MD 1-quasi-New 2-CG
   NFREE  =      0    steps in history (QN), initial steepest desc. (CG)
   ISIF   =      6    stress and relaxation
   IWAVPR =     10    prediction:  0-non 1-charg 2-wave 3-comb
   ISYM   =      2    0-nonsym 1-usesym 2-fastsym
   LCORR  =      T    Harris-Foulkes like correction to forces

   POTIM  = 0.5000    time-step for ionic-motion
   TEIN   =    0.0    initial temperature
   TEBEG  =    0.0;   TEEND  =   0.0 temperature during run
   SMASS  =  -3.00    Nose mass-parameter (am)
   estimated Nose-frequenzy (Omega)   =  0.10E-29 period in steps = 0.13E+47 mass=  -0.154E-26a.u.
   SCALEE = 1.0000    scale energy and forces
   NPACO  =    256;   APACO  = 16.0  distance and # of slots for P.C.
   PSTRESS=    0.0 pullay stress

  Mass of Ions in am
   POMASS =  58.69 72.61 54.94 55.85
  Ionic Valenz
   ZVAL   =  10.00  4.00  7.00  8.00
  Atomic Wigner-Seitz radii
   RWIGS  =  -1.00 -1.00 -1.00 -1.00
  virtual crystal weights 
   VCA    =   1.00  1.00  1.00  1.00
   NELECT =     337.0000    total number of electrons
   NUPDOWN=      -1.0000    fix difference up-down

 DOS related values:
   EMIN   =  10.00;   EMAX   =-10.00  energy-range for DOS
   EFERMI =   0.00
   ISMEAR =     1;   SIGMA  =   0.20  broadening in eV -4-tet -1-fermi 0-gaus

 Electronic relaxation 2 (details)
   IALGO  =     38    algorithm
   LDIAG  =      T    sub-space diagonalisation (order eigenvalues)
   LSUBROT=      F    optimize rotation matrix (better conditioning)
   TURBO    =      0    0=normal 1=particle mesh
   IRESTART =      0    0=no restart 2=restart with 2 vectors
   NREBOOT  =      0    no. of reboots
   NMIN     =      0    reboot dimension
   EREF     =   0.00    reference energy to select bands
   IMIX   =      4    mixing-type and parameters
     AMIX     =   0.40;   BMIX     =  1.00
     AMIX_MAG =   1.60;   BMIX_MAG =  1.00
     AMIN     =   0.10
     WC   =   100.;   INIMIX=   1;  MIXPRE=   1;  MAXMIX= -45

 Intra band minimization:
   WEIMIN = 0.0000     energy-eigenvalue tresh-hold
   EBREAK =  0.69E-09  absolut break condition
   DEPER  =   0.30     relativ break condition  

   TIME   =   0.40     timestep for ELM

  volume/ion in A,a.u.               =      12.85        86.71
  Fermi-wavevector in a.u.,A,eV,Ry     =   1.338386  2.529183 24.371805  1.791277
  Thomas-Fermi vector in A             =   2.466860
 
 Write flags
   LWAVE        =      F    write WAVECAR
   LDOWNSAMPLE  =      F    k-point downsampling of WAVECAR
   LCHARG       =      T    write CHGCAR
   LVTOT        =      F    write LOCPOT, total local potential
   LVHAR        =      F    write LOCPOT, Hartree potential only
   LELF         =      F    write electronic localiz. function (ELF)
   LORBIT       =     11    0 simple, 1 ext, 2 COOP (PROOUT), +10 PAW based schemes


 Dipole corrections
   LMONO  =      F    monopole corrections only (constant potential shift)
   LDIPOL =      F    correct potential (dipole corrections)
   IDIPOL =      0    1-x, 2-y, 3-z, 4-all directions 
   EPSILON=  1.0000000 bulk dielectric constant

 Exchange correlation treatment:
   GGA     =    --    GGA type
   LEXCH   =     8    internal setting for exchange type
   VOSKOWN=      0    Vosko Wilk Nusair interpolation
   LHFCALC =     F    Hartree Fock is set to
   LHFONE  =     F    Hartree Fock one center treatment
   AEXX    =    0.0000 exact exchange contribution

 Linear response parameters
   LEPSILON=     F    determine dielectric tensor
   LRPA    =     F    only Hartree local field effects (RPA)
   LNABLA  =     F    use nabla operator in PAW spheres
   LVEL    =     F    velocity operator in full k-point grid
   LINTERFAST=   F  fast interpolation
   KINTER  =     0    interpolate to denser k-point grid
   CSHIFT  =0.1000    complex shift for real part using Kramers Kronig
   OMEGAMAX=  -1.0    maximum frequency
   DEG_THRESHOLD= 0.2000000E-02 threshold for treating states as degnerate
   RTIME   =   -0.100 relaxation time in fs
  (WPLASMAI=    0.000 imaginary part of plasma frequency in eV, 0.658/RTIME)
   DFIELD  = 0.0000000 0.0000000 0.0000000 field for delta impulse in time
 
 Orbital magnetization related:
   ORBITALMAG=     F  switch on orbital magnetization
   LCHIMAG   =     F  perturbation theory with respect to B field
   DQ        =  0.001000  dq finite difference perturbation B field
   LLRAUG    =     F  two centre corrections for induced B field



--------------------------------------------------------------------------------------------------------


 Static calculation
 charge density and potential will be updated during run
 spin polarized calculation
 Variant of blocked Davidson
 Davidson routine will perform the subspace rotation
 perform sub-space diagonalisation
    after iterative eigenvector-optimisation
 modified Broyden-mixing scheme, WC =      100.0
 initial mixing is a Kerker type mixing with AMIX =  0.4000 and BMIX =      1.0000
 Hartree-type preconditioning will be used
 using additional bands          191
 reciprocal scheme for non local part
 use partial core corrections
 calculate Harris-corrections to forces 
   (improved forces if not selfconsistent)
 use gradient corrections 
 use of overlap-Matrix (Vanderbilt PP)
 Methfessel and Paxton  Order N= 1 SIGMA  =   0.20


--------------------------------------------------------------------------------------------------------


  energy-cutoff  :      450.00
  volume of cell :      616.75
      direct lattice vectors                 reciprocal lattice vectors
     8.213985409  0.000000000  0.000000000     0.121743581  0.070288689  0.000000000
    -4.106992705  7.113520031  0.000000000     0.000000000  0.140577379  0.000000000
     0.000000000  0.000000000 10.555328020     0.000000000  0.000000000  0.094738884

  length of vectors
     8.213985409  8.213985409 10.555328020     0.140577379  0.140577379  0.094738884


 
 k-points in units of 2pi/SCALE and weight: Auto                                    
   0.00000000  0.00000000  0.00000000       0.002
   0.01359470  0.00784890  0.00000000       0.011
   0.02718940  0.01569781  0.00000000       0.011
   0.04078410  0.02354671  0.00000000       0.011
   0.05437880  0.03139561  0.00000000       0.011
   0.01359470  0.02354671  0.00000000       0.011
   0.02718940  0.03139561  0.00000000       0.021
   0.04078410  0.03924452  0.00000000       0.021
   0.05437880  0.04709342  0.00000000       0.011
   0.02718940  0.04709342  0.00000000       0.011
   0.04078410  0.05494233  0.00000000       0.021
   0.04078410  0.07064013  0.00000000       0.004
   0.00000000  0.00000000  0.01360180       0.004
   0.01359470  0.00784890  0.01360180       0.011
   0.01359470 -0.00784890  0.01360180       0.011
   0.02718940  0.01569781  0.01360180       0.011
   0.02718940 -0.01569781  0.01360180       0.011
   0.04078410  0.02354671  0.01360180       0.011
   0.04078410 -0.02354671  0.01360180       0.011
   0.05437880  0.03139561  0.01360180       0.011
   0.05437880 -0.03139561  0.01360180       0.011
   0.01359470  0.02354671  0.01360180       0.021
   0.02718940  0.03139561  0.01360180       0.021
   0.04078410 -0.00784890  0.01360180       0.021
   0.04078410  0.03924452  0.01360180       0.021
   0.05437880 -0.01569781  0.01360180       0.021
   0.05437880  0.04709342  0.01360180       0.021
   0.02718940  0.04709342  0.01360180       0.021
   0.04078410  0.05494233  0.01360180       0.021
  -0.05437880 -0.07848904  0.01360180       0.021
   0.04078410  0.07064013  0.01360180       0.007
   0.00000000  0.00000000  0.02720359       0.004
   0.01359470  0.00784890  0.02720359       0.011
   0.01359470 -0.00784890  0.02720359       0.011
   0.02718940  0.01569781  0.02720359       0.011
   0.02718940 -0.01569781  0.02720359       0.011
   0.04078410  0.02354671  0.02720359       0.011
   0.04078410 -0.02354671  0.02720359       0.011
   0.05437880  0.03139561  0.02720359       0.011
   0.05437880 -0.03139561  0.02720359       0.011
   0.01359470  0.02354671  0.02720359       0.021
   0.02718940  0.03139561  0.02720359       0.021
   0.04078410 -0.00784890  0.02720359       0.021
   0.04078410  0.03924452  0.02720359       0.021
   0.05437880 -0.01569781  0.02720359       0.021
   0.05437880  0.04709342  0.02720359       0.021
   0.02718940  0.04709342  0.02720359       0.021
   0.04078410  0.05494233  0.02720359       0.021
  -0.05437880 -0.07848904  0.02720359       0.021
   0.04078410  0.07064013  0.02720359       0.007
   0.00000000  0.00000000  0.04080539       0.004
   0.01359470  0.00784890  0.04080539       0.011
   0.01359470 -0.00784890  0.04080539       0.011
   0.02718940  0.01569781  0.04080539       0.011
   0.02718940 -0.01569781  0.04080539       0.011
   0.04078410  0.02354671  0.04080539       0.011
   0.04078410 -0.02354671  0.04080539       0.011
   0.05437880  0.03139561  0.04080539       0.011
   0.05437880 -0.03139561  0.04080539       0.011
   0.01359470  0.02354671  0.04080539       0.021
   0.02718940  0.03139561  0.04080539       0.021
   0.04078410 -0.00784890  0.04080539       0.021
   0.04078410  0.03924452  0.04080539       0.021
   0.05437880 -0.01569781  0.04080539       0.021
   0.05437880  0.04709342  0.04080539       0.021
   0.02718940  0.04709342  0.04080539       0.021
   0.04078410  0.05494233  0.04080539       0.021
  -0.05437880 -0.07848904  0.04080539       0.021
   0.04078410  0.07064013  0.04080539       0.007
 
 k-points in reciprocal lattice and weights: Auto                                    
   0.00000000  0.00000000  0.00000000       0.002
   0.11111111  0.00000000  0.00000000       0.011
   0.22222222 -0.00000000  0.00000000       0.011
   0.33333333  0.00000000  0.00000000       0.011
   0.44444444 -0.00000000  0.00000000       0.011
   0.11111111  0.11111111  0.00000000       0.011
   0.22222222  0.11111111  0.00000000       0.021
   0.33333333  0.11111111  0.00000000       0.021
   0.44444444  0.11111111  0.00000000       0.011
   0.22222222  0.22222222  0.00000000       0.011
   0.33333333  0.22222222  0.00000000       0.021
   0.33333333  0.33333333  0.00000000       0.004
   0.00000000  0.00000000  0.14285714       0.004
   0.11111111  0.00000000  0.14285714       0.011
   0.11111111 -0.11111111  0.14285714       0.011
   0.22222222 -0.00000000  0.14285714       0.011
   0.22222222 -0.22222222  0.14285714       0.011
   0.33333333  0.00000000  0.14285714       0.011
   0.33333333 -0.33333333  0.14285714       0.011
   0.44444444 -0.00000000  0.14285714       0.011
   0.44444444 -0.44444444  0.14285714       0.011
   0.11111111  0.11111111  0.14285714       0.021
   0.22222222  0.11111111  0.14285714       0.021
   0.33333333 -0.22222222  0.14285714       0.021
   0.33333333  0.11111111  0.14285714       0.021
   0.44444444 -0.33333333  0.14285714       0.021
   0.44444444  0.11111111  0.14285714       0.021
   0.22222222  0.22222222  0.14285714       0.021
   0.33333333  0.22222222  0.14285714       0.021
  -0.44444444 -0.33333333  0.14285714       0.021
   0.33333333  0.33333333  0.14285714       0.007
   0.00000000  0.00000000  0.28571429       0.004
   0.11111111  0.00000000  0.28571429       0.011
   0.11111111 -0.11111111  0.28571429       0.011
   0.22222222 -0.00000000  0.28571429       0.011
   0.22222222 -0.22222222  0.28571429       0.011
   0.33333333  0.00000000  0.28571429       0.011
   0.33333333 -0.33333333  0.28571429       0.011
   0.44444444 -0.00000000  0.28571429       0.011
   0.44444444 -0.44444444  0.28571429       0.011
   0.11111111  0.11111111  0.28571429       0.021
   0.22222222  0.11111111  0.28571429       0.021
   0.33333333 -0.22222222  0.28571429       0.021
   0.33333333  0.11111111  0.28571429       0.021
   0.44444444 -0.33333333  0.28571429       0.021
   0.44444444  0.11111111  0.28571429       0.021
   0.22222222  0.22222222  0.28571429       0.021
   0.33333333  0.22222222  0.28571429       0.021
  -0.44444444 -0.33333333  0.28571429       0.021
   0.33333333  0.33333333  0.28571429       0.007
   0.00000000  0.00000000  0.42857143       0.004
   0.11111111  0.00000000  0.42857143       0.011
   0.11111111 -0.11111111  0.42857143       0.011
   0.22222222 -0.00000000  0.42857143       0.011
   0.22222222 -0.22222222  0.42857143       0.011
   0.33333333  0.00000000  0.42857143       0.011
   0.33333333 -0.33333333  0.42857143       0.011
   0.44444444 -0.00000000  0.42857143       0.011
   0.44444444 -0.44444444  0.42857143       0.011
   0.11111111  0.11111111  0.42857143       0.021
   0.22222222  0.11111111  0.42857143       0.021
   0.33333333 -0.22222222  0.42857143       0.021
   0.33333333  0.11111111  0.42857143       0.021
   0.44444444 -0.33333333  0.42857143       0.021
   0.44444444  0.11111111  0.42857143       0.021
   0.22222222  0.22222222  0.42857143       0.021
   0.33333333  0.22222222  0.42857143       0.021
  -0.44444444 -0.33333333  0.42857143       0.021
   0.33333333  0.33333333  0.42857143       0.007
 
 position of ions in fractional coordinates (direct lattice) 
   0.66666667  0.83333333  0.37500000
   0.33333333  0.16666667  0.62500000
   0.16666667  0.83333333  0.37500000
   0.83333333  0.16666667  0.62500000
   0.16666667  0.33333333  0.37500000
   0.83333333  0.66666667  0.62500000
   0.83333333  0.66666667  0.12500000
   0.16666667  0.33333333  0.87500000
   0.33333333  0.16666667  0.12500000
   0.66666667  0.83333333  0.87500000
   0.83333333  0.16666667  0.12500000
   0.16666667  0.83333333  0.87500000
   0.33333333  0.66666667  0.12500000
   0.66666667  0.33333333  0.87500000
   0.66666667  0.33333333  0.37500000
   0.33333333  0.66666667  0.62500000
   0.66666667  0.83333333  0.12500000
   0.33333331  0.16666667  0.87500000
   0.16666667  0.83333333  0.12500000
   0.83333333  0.16666667  0.87500000
   0.16666667  0.33333333  0.12500000
   0.83333333  0.66666667  0.87500000
   0.83333333  0.66666667  0.37500000
   0.16666667  0.33333333  0.62500000
   0.33333333  0.16666667  0.37500000
   0.66666667  0.83333333  0.62500000
   0.83333333  0.16666667  0.37500000
   0.16666667  0.83333333  0.62500000
   0.33333333  0.66666667  0.37500000
   0.66666667  0.33333333  0.62500000
   0.66666667  0.33333333  0.12500000
   0.33333333  0.66666667  0.87500000
   0.50000000  0.50000000  0.00000000
   0.50000000  0.00000000  0.00000000
   0.00000000  0.50000000  0.00000000
   0.50000000  0.50000000  0.25000000
   0.50000000  0.50000000  0.75000000
   0.50000000  0.00000000  0.25000000
   0.50000000  0.00000000  0.75000000
   0.00000000  0.50000000  0.25000000
   0.00000000  0.50000000  0.75000000
   0.00000000  0.00000000  0.00000000
   0.00000000  0.00000000  0.25000000
   0.00000000  0.00000000  0.75000000
   0.50000000  0.50000000  0.50000000
   0.50000000  0.00000000  0.50000000
   0.00000000  0.50000000  0.50000000
   0.00000000  0.00000000  0.50000000
 
 position of ions in cartesian coordinates  (Angst):
   2.05349635  5.92793336  3.95824801
   2.05349635  1.18558667  6.59708001
  -2.05349636  5.92793336  3.95824801
   6.16048906  1.18558667  6.59708001
  -0.00000000  2.37117334  3.95824801
   4.10699270  4.74234668  6.59708001
   4.10699270  4.74234668  1.31941600
  -0.00000000  2.37117334  9.23591202
   2.05349635  1.18558667  1.31941600
   2.05349635  5.92793336  9.23591202
   6.16048906  1.18558667  1.31941600
  -2.05349636  5.92793336  9.23591202
   0.00000000  4.74234668  1.31941600
   4.10699270  2.37117334  9.23591202
   4.10699270  2.37117334  3.95824801
   0.00000000  4.74234668  6.59708001
   2.05349635  5.92793336  1.31941600
   2.05349619  1.18558667  9.23591202
  -2.05349636  5.92793336  1.31941600
   6.16048906  1.18558667  9.23591202
  -0.00000000  2.37117334  1.31941600
   4.10699270  4.74234668  9.23591202
   4.10699270  4.74234668  3.95824801
  -0.00000000  2.37117334  6.59708001
   2.05349635  1.18558667  3.95824801
   2.05349635  5.92793336  6.59708001
   6.16048906  1.18558667  3.95824801
  -2.05349636  5.92793336  6.59708001
   0.00000000  4.74234668  3.95824801
   4.10699270  2.37117334  6.59708001
   4.10699270  2.37117334  1.31941600
   0.00000000  4.74234668  9.23591202
   2.05349635  3.55676002  0.00000000
   4.10699270  0.00000000  0.00000000
  -2.05349635  3.55676002  0.00000000
   2.05349635  3.55676002  2.63883201
   2.05349635  3.55676002  7.91649602
   4.10699270  0.00000000  2.63883201
   4.10699270  0.00000000  7.91649602
  -2.05349635  3.55676002  2.63883201
  -2.05349635  3.55676002  7.91649602
   0.00000000  0.00000000  0.00000000
   0.00000000  0.00000000  2.63883201
   0.00000000  0.00000000  7.91649602
   2.05349635  3.55676002  5.27766401
   4.10699270  0.00000000  5.27766401
  -2.05349635  3.55676002  5.27766401
   0.00000000  0.00000000  5.27766401
 


--------------------------------------------------------------------------------------------------------


 k-point   1 :   0.0000 0.0000 0.0000  plane waves:   13399
 k-point   2 :   0.1111 0.0000 0.0000  plane waves:   13353
 k-point   3 :   0.2222-0.0000 0.0000  plane waves:   13357
 k-point   4 :   0.3333 0.0000 0.0000  plane waves:   13368
 k-point   5 :   0.4444-0.0000 0.0000  plane waves:   13396
 k-point   6 :   0.1111 0.1111 0.0000  plane waves:   13346
 k-point   7 :   0.2222 0.1111 0.0000  plane waves:   13355
 k-point   8 :   0.3333 0.1111 0.0000  plane waves:   13376
 k-point   9 :   0.4444 0.1111 0.0000  plane waves:   13358
 k-point  10 :   0.2222 0.2222 0.0000  plane waves:   13370
 k-point  11 :   0.3333 0.2222 0.0000  plane waves:   13375
 k-point  12 :   0.3333 0.3333 0.0000  plane waves:   13374
 k-point  13 :   0.0000 0.0000 0.1429  plane waves:   13381
 k-point  14 :   0.1111 0.0000 0.1429  plane waves:   13356
 k-point  15 :   0.1111-0.1111 0.1429  plane waves:   13356
 k-point  16 :   0.2222-0.0000 0.1429  plane waves:   13365
 k-point  17 :   0.2222-0.2222 0.1429  plane waves:   13365
 k-point  18 :   0.3333 0.0000 0.1429  plane waves:   13357
 k-point  19 :   0.3333-0.3333 0.1429  plane waves:   13357
 k-point  20 :   0.4444-0.0000 0.1429  plane waves:   13377
 k-point  21 :   0.4444-0.4444 0.1429  plane waves:   13377
 k-point  22 :   0.1111 0.1111 0.1429  plane waves:   13357
 k-point  23 :   0.2222 0.1111 0.1429  plane waves:   13365
 k-point  24 :   0.3333-0.2222 0.1429  plane waves:   13365
 k-point  25 :   0.3333 0.1111 0.1429  plane waves:   13369
 k-point  26 :   0.4444-0.3333 0.1429  plane waves:   13369
 k-point  27 :   0.4444 0.1111 0.1429  plane waves:   13378
 k-point  28 :   0.2222 0.2222 0.1429  plane waves:   13375
 k-point  29 :   0.3333 0.2222 0.1429  plane waves:   13385
 k-point  30 :  -0.4444-0.3333 0.1429  plane waves:   13385
 k-point  31 :   0.3333 0.3333 0.1429  plane waves:   13383
 k-point  32 :   0.0000 0.0000 0.2857  plane waves:   13392
 k-point  33 :   0.1111 0.0000 0.2857  plane waves:   13387
 k-point  34 :   0.1111-0.1111 0.2857  plane waves:   13387
 k-point  35 :   0.2222-0.0000 0.2857  plane waves:   13353
 k-point  36 :   0.2222-0.2222 0.2857  plane waves:   13353
 k-point  37 :   0.3333 0.0000 0.2857  plane waves:   13368
 k-point  38 :   0.3333-0.3333 0.2857  plane waves:   13368
 k-point  39 :   0.4444-0.0000 0.2857  plane waves:   13367
 k-point  40 :   0.4444-0.4444 0.2857  plane waves:   13367
 k-point  41 :   0.1111 0.1111 0.2857  plane waves:   13347
 k-point  42 :   0.2222 0.1111 0.2857  plane waves:   13367
 k-point  43 :   0.3333-0.2222 0.2857  plane waves:   13367
 k-point  44 :   0.3333 0.1111 0.2857  plane waves:   13367
 k-point  45 :   0.4444-0.3333 0.2857  plane waves:   13367
 k-point  46 :   0.4444 0.1111 0.2857  plane waves:   13368
 k-point  47 :   0.2222 0.2222 0.2857  plane waves:   13360
 k-point  48 :   0.3333 0.2222 0.2857  plane waves:   13368
 k-point  49 :  -0.4444-0.3333 0.2857  plane waves:   13368
 k-point  50 :   0.3333 0.3333 0.2857  plane waves:   13377
 k-point  51 :   0.0000 0.0000 0.4286  plane waves:   13374
 k-point  52 :   0.1111 0.0000 0.4286  plane waves:   13381
 k-point  53 :   0.1111-0.1111 0.4286  plane waves:   13381
 k-point  54 :   0.2222-0.0000 0.4286  plane waves:   13352
 k-point  55 :   0.2222-0.2222 0.4286  plane waves:   13352
 k-point  56 :   0.3333 0.0000 0.4286  plane waves:   13376
 k-point  57 :   0.3333-0.3333 0.4286  plane waves:   13376
 k-point  58 :   0.4444-0.0000 0.4286  plane waves:   13368
 k-point  59 :   0.4444-0.4444 0.4286  plane waves:   13368
 k-point  60 :   0.1111 0.1111 0.4286  plane waves:   13362
 k-point  61 :   0.2222 0.1111 0.4286  plane waves:   13372
 k-point  62 :   0.3333-0.2222 0.4286  plane waves:   13372
 k-point  63 :   0.3333 0.1111 0.4286  plane waves:   13373
 k-point  64 :   0.4444-0.3333 0.4286  plane waves:   13373
 k-point  65 :   0.4444 0.1111 0.4286  plane waves:   13386
 k-point  66 :   0.2222 0.2222 0.4286  plane waves:   13391
 k-point  67 :   0.3333 0.2222 0.4286  plane waves:   13357
 k-point  68 :  -0.4444-0.3333 0.4286  plane waves:   13357
 k-point  69 :   0.3333 0.3333 0.4286  plane waves:   13353

 maximum and minimum number of plane-waves per node :      2261     2186

 maximum number of plane-waves:     13399
 maximum index in each direction: 
   IXMAX=   14   IYMAX=   14   IZMAX=   18
   IXMIN=  -14   IYMIN=  -14   IZMIN=  -18


 parallel 3D FFT for wavefunctions:
    minimum data exchange during FFTs selected (reduces bandwidth)
 parallel 3D FFT for charge:
    minimum data exchange during FFTs selected (reduces bandwidth)


 total amount of memory used by VASP MPI-rank0   612943. kBytes
=======================================================================

   base      :      30000. kBytes
   nonl-proj :      91070. kBytes
   fftplans  :       4706. kBytes
   grid      :      13171. kBytes
   one-center:        248. kBytes
   wavefun   :     473748. kBytes
 
     INWAV:  cpu time    0.0000: real time    0.0073
 Broyden mixing: mesh for mixing (old mesh)
   NGX = 29   NGY = 29   NGZ = 37
  (NGX  =120   NGY  =120   NGZ  =160)
  gives a total of  31117 points

 initial charge density was supplied:
 charge density of overlapping atoms calculated
 number of electron     337.0000000 magnetization     160.0000000
 keeping initial charge density in first step


--------------------------------------------------------------------------------------------------------


 Maximum index for augmentation-charges         1102 (set IRDMAX)


--------------------------------------------------------------------------------------------------------


 First call to EWALD:  gamma=   0.208
 Maximum number of real-space cells 3x 3x 2
 Maximum number of reciprocal cells 3x 3x 3

    FEWALD:  cpu time    0.0030: real time    0.0189


--------------------------------------- Iteration      1(   1)  ---------------------------------------


    POTLOK:  cpu time    0.2090: real time    0.5088
    SETDIJ:  cpu time    0.0360: real time    0.1466
     EDDAV:  cpu time  350.5497: real time  353.3551
       DOS:  cpu time    0.0420: real time    0.0797
    --------------------------------------------
      LOOP:  cpu time  350.8367: real time  354.0903

 eigenvalue-minimisations  : 99376
 total energy-change (2. order) : 0.2793605E+04  (-0.1089101E+05)
 number of electron     337.0000000 magnetization     160.0000000
 augmentation part      337.0000000 magnetization     160.0000000

 Free energy of the ion-electron system (eV)
  ---------------------------------------------------
  alpha Z        PSCENC =      1557.23228832
  Ewald energy   TEWEN  =    -22391.07351673
  -Hartree energ DENC   =     -6768.18253629
  -exchange      EXHF   =         0.00000000
  -V(xc)+E(xc)   XCENC  =       315.53588949
  PAW double counting   =     23377.83946347   -23998.34197029
  entropy T*S    EENTRO =         0.00010830
  eigenvalues    EBANDS =      4932.36839143
  atomic energy  EATOM  =     25768.22672671
  Solvation  Ediel_sol  =         0.00000000
  ---------------------------------------------------
  free energy    TOTEN  =      2793.60484441 eV

  energy without entropy =     2793.60473611  energy(sigma->0) =     2793.60480831


--------------------------------------------------------------------------------------------------------




--------------------------------------- Iteration      1(   2)  ---------------------------------------


     EDDAV:  cpu time  350.1588: real time  351.9694
       DOS:  cpu time    0.0500: real time    0.0496
    --------------------------------------------
      LOOP:  cpu time  350.2088: real time  352.0190

 eigenvalue-minimisations  : 99360
 total energy-change (2. order) :-0.2625704E+04  (-0.2342902E+04)
 number of electron     337.0000000 magnetization     160.0000000
 augmentation part      337.0000000 magnetization     160.0000000

 Free energy of the ion-electron system (eV)
  ---------------------------------------------------
  alpha Z        PSCENC =      1557.23228832
  Ewald energy   TEWEN  =    -22391.07351673
  -Hartree energ DENC   =     -6768.18253629
  -exchange      EXHF   =         0.00000000
  -V(xc)+E(xc)   XCENC  =       315.53588949
  PAW double counting   =     23377.83946347   -23998.34197029
  entropy T*S    EENTRO =         0.00484574
  eigenvalues    EBANDS =      2306.65992075
  atomic energy  EATOM  =     25768.22672671
  Solvation  Ediel_sol  =         0.00000000
  ---------------------------------------------------
  free energy    TOTEN  =       167.90111117 eV

  energy without entropy =      167.89626543  energy(sigma->0) =      167.89949592


--------------------------------------------------------------------------------------------------------




--------------------------------------- Iteration      1(   3)  ---------------------------------------


     EDDAV:  cpu time  351.2946: real time  352.7038
       DOS:  cpu time    0.0560: real time    0.0567
    --------------------------------------------
      LOOP:  cpu time  351.3506: real time  352.7605

 eigenvalue-minimisations  : 99592
 total energy-change (2. order) :-0.4327663E+03  (-0.3556458E+03)
 number of electron     337.0000000 magnetization     160.0000000
 augmentation part      337.0000000 magnetization     160.0000000

 Free energy of the ion-electron system (eV)
  ---------------------------------------------------
  alpha Z        PSCENC =      1557.23228832
  Ewald energy   TEWEN  =    -22391.07351673
  -Hartree energ DENC   =     -6768.18253629
  -exchange      EXHF   =         0.00000000
  -V(xc)+E(xc)   XCENC  =       315.53588949
  PAW double counting   =     23377.83946347   -23998.34197029
  entropy T*S    EENTRO =         0.02272560
  eigenvalues    EBANDS =      1873.87573730
  atomic energy  EATOM  =     25768.22672671
  Solvation  Ediel_sol  =         0.00000000
  ---------------------------------------------------
  free energy    TOTEN  =      -264.86519242 eV

  energy without entropy =     -264.88791802  energy(sigma->0) =     -264.87276762


--------------------------------------------------------------------------------------------------------




--------------------------------------- Iteration      1(   4)  ---------------------------------------


     EDDAV:  cpu time  410.2576: real time  411.9227
       DOS:  cpu time    0.0600: real time    0.0603
    --------------------------------------------
      LOOP:  cpu time  410.3176: real time  411.9830

 eigenvalue-minimisations  :121912
 total energy-change (2. order) :-0.3105047E+02  (-0.2966660E+02)
 number of electron     337.0000000 magnetization     160.0000000
 augmentation part      337.0000000 magnetization     160.0000000

 Free energy of the ion-electron system (eV)
  ---------------------------------------------------
  alpha Z        PSCENC =      1557.23228832
  Ewald energy   TEWEN  =    -22391.07351673
  -Hartree energ DENC   =     -6768.18253629
  -exchange      EXHF   =         0.00000000
  -V(xc)+E(xc)   XCENC  =       315.53588949
  PAW double counting   =     23377.83946347   -23998.34197029
  entropy T*S    EENTRO =         0.03586987
  eigenvalues    EBANDS =      1842.81212761
  atomic energy  EATOM  =     25768.22672671
  Solvation  Ediel_sol  =         0.00000000
  ---------------------------------------------------
  free energy    TOTEN  =      -295.91565784 eV

  energy without entropy =     -295.95152770  energy(sigma->0) =     -295.92761446


--------------------------------------------------------------------------------------------------------




--------------------------------------- Iteration      1(   5)  ---------------------------------------


     EDDAV:  cpu time  409.1778: real time  410.7912
       DOS:  cpu time    0.0600: real time    0.0595
    CHARGE:  cpu time    6.2461: real time    6.3505
    MIXING:  cpu time    0.0080: real time    0.0584
    --------------------------------------------
      LOOP:  cpu time  415.4918: real time  417.2597

 eigenvalue-minimisations  :121504
 total energy-change (2. order) :-0.8016346E+00  (-0.7997557E+00)
 number of electron     337.0000122 magnetization     126.9751550
 augmentation part      119.9575038 magnetization     102.5325178

 Broyden mixing:
  rms(total) = 0.10033E+02    rms(broyden)= 0.10032E+02
  rms(prec ) = 0.10971E+02
  weight for this iteration     100.00

 Free energy of the ion-electron system (eV)
  ---------------------------------------------------
  alpha Z        PSCENC =      1557.23228832
  Ewald energy   TEWEN  =    -22391.07351673
  -Hartree energ DENC   =     -6768.18253629
  -exchange      EXHF   =         0.00000000
  -V(xc)+E(xc)   XCENC  =       315.53588949
  PAW double counting   =     23377.83946347   -23998.34197029
  entropy T*S    EENTRO =         0.03614134
  eigenvalues    EBANDS =      1842.01022152
  atomic energy  EATOM  =     25768.22672671
  Solvation  Ediel_sol  =         0.00000000
  ---------------------------------------------------
  free energy    TOTEN  =      -296.71729245 eV

  energy without entropy =     -296.75343380  energy(sigma->0) =     -296.72933957


--------------------------------------------------------------------------------------------------------




--------------------------------------- Iteration      1(   6)  ---------------------------------------


    POTLOK:  cpu time    0.1930: real time    0.2014
    SETDIJ:  cpu time    0.0310: real time    0.0304
     EDDAV:  cpu time  420.8270: real time  422.5040
       DOS:  cpu time    0.0620: real time    0.0625
    CHARGE:  cpu time    5.9761: real time    5.9873
    MIXING:  cpu time    0.0060: real time    0.1099
    --------------------------------------------
[...]
   43        0.021   0.018   3.003   3.042
   44        0.021   0.018   3.003   3.042
   45        0.019   0.019   2.908   2.946
   46        0.019   0.019   2.908   2.946
   47        0.019   0.019   2.908   2.946
   48        0.014   0.008   2.358   2.380
--------------------------------------------------
tot         -0.286  -1.712  48.913  46.915
 
    CHARGE:  cpu time    5.8641: real time    5.8865
    FORLOC:  cpu time    0.0270: real time    0.0355
    FORNL :  cpu time  112.9638: real time  113.3658
    STRESS:  cpu time  197.4560: real time  198.2091
    FORCOR:  cpu time    0.2130: real time    0.2400
    FORHAR:  cpu time    0.0450: real time    0.0527
    MIXING:  cpu time    0.0090: real time    0.0098
    OFIELD:  cpu time    0.0010: real time    0.0052

  FORCE on cell =-STRESS in cart. coord.  units (eV):
  Direction    XX          YY          ZZ          XY          YZ          ZX
  --------------------------------------------------------------------------------------
  Alpha Z  1557.23229  1557.23229  1557.23229
  Ewald   -7246.19741 -7246.19741 -7898.77212    -0.00001     0.00000     0.00000
  Hartree  2144.87802  2144.87802  2010.85205    -0.00000     0.00000    -0.00000
  E(xc)   -1653.58153 -1653.58156 -1657.29119    -0.00002    -0.00000     0.00000
  Local    -715.40404  -715.40494   -44.14413    -0.00077    -0.00000     0.00000
  n-local  -234.44254  -237.20687  -273.26098     1.14004    -0.61644    -0.52484
  augment  3301.33276  3301.33341  3372.53445     0.00056    -0.00000     0.00000
  Kinetic  2840.17973  2838.78233  2926.26127     1.10776    -0.22783     0.93078
  Fock        0.00000     0.00000     0.00000     0.00000     0.00000     0.00000
  -------------------------------------------------------------------------------------
  Total      -8.08373    -8.08373    -6.58836    -0.00000     0.00000     0.00000
  in kB     -20.99965   -20.99965   -17.11503    -0.00000     0.00000     0.00000
  external pressure =      -19.70 kB  Pullay stress =        0.00 kB


 VOLUME and BASIS-vectors are now :
 -----------------------------------------------------------------------------
  energy-cutoff  :      450.00
  volume of cell :      616.75
      direct lattice vectors                 reciprocal lattice vectors
     8.213985409  0.000000000  0.000000000     0.121743581  0.070288689  0.000000000
    -4.106992705  7.113520031  0.000000000     0.000000000  0.140577379  0.000000000
     0.000000000  0.000000000 10.555328020     0.000000000  0.000000000  0.094738884

  length of vectors
     8.213985409  8.213985409 10.555328020     0.140577379  0.140577379  0.094738884


 FORCES acting on ions
    electron-ion (+dipol)            ewald-force                    non-local-force                 convergence-correction
 -----------------------------------------------------------------------------------------------
   0.120E+02 0.690E+01 0.978E+01   -.120E+02 -.692E+01 -.976E+01   0.434E-01 0.251E-01 -.408E-02   -.130E-02 -.752E-03 -.244E-03
   -.120E+02 -.690E+01 -.978E+01   0.120E+02 0.692E+01 0.976E+01   -.434E-01 -.251E-01 0.408E-02   0.130E-02 0.752E-03 0.244E-03
   -.120E+02 0.690E+01 0.978E+01   0.120E+02 -.692E+01 -.976E+01   -.434E-01 0.251E-01 -.408E-02   0.130E-02 -.751E-03 -.244E-03
   0.120E+02 -.690E+01 -.978E+01   -.120E+02 0.692E+01 0.976E+01   0.434E-01 -.251E-01 0.408E-02   -.130E-02 0.751E-03 0.244E-03
   0.562E-06 -.138E+02 0.978E+01   0.104E-05 0.138E+02 -.976E+01   0.130E-17 -.501E-01 -.408E-02   0.110E-07 0.150E-02 -.244E-03
   -.847E-06 0.138E+02 -.978E+01   -.628E-06 -.138E+02 0.976E+01   0.000E+00 0.501E-01 0.408E-02   -.108E-07 -.150E-02 0.244E-03
   -.744E-06 0.176E+01 0.415E+01   -.628E-06 -.178E+01 -.418E+01   0.651E-18 0.267E-01 0.275E-01   -.703E-08 0.524E-02 0.188E-02
   -.106E-05 -.176E+01 -.415E+01   -.883E-05 0.178E+01 0.418E+01   -.325E-18 -.267E-01 -.275E-01   0.685E-08 -.524E-02 -.188E-02
   -.152E+01 -.880E+00 0.415E+01   0.154E+01 0.888E+00 -.418E+01   -.231E-01 -.133E-01 0.275E-01   -.454E-02 -.262E-02 0.188E-02
   0.152E+01 0.880E+00 -.415E+01   -.154E+01 -.888E+00 0.418E+01   0.231E-01 0.133E-01 -.275E-01   0.454E-02 0.262E-02 -.188E-02
   0.152E+01 -.880E+00 0.415E+01   -.154E+01 0.888E+00 -.418E+01   0.231E-01 -.133E-01 0.275E-01   0.454E-02 -.262E-02 0.188E-02
   -.152E+01 0.880E+00 -.415E+01   0.154E+01 -.888E+00 0.418E+01   -.231E-01 0.133E-01 -.275E-01   -.454E-02 0.262E-02 -.188E-02
   -.741E-06 0.252E-06 0.277E+01   -.628E-06 0.207E-05 -.277E+01   -.260E-17 0.000E+00 -.127E-01   0.452E-10 -.252E-07 0.575E-02
   -.107E-05 -.197E-05 -.277E+01   -.882E-05 -.915E-05 0.277E+01   0.173E-17 0.000E+00 0.127E-01   -.235E-09 0.167E-07 -.575E-02
   0.420E-06 -.614E-06 0.345E+01   0.108E-05 -.120E-06 -.348E+01   0.173E-17 0.217E-18 0.551E-01   -.529E-09 0.910E-08 0.451E-03
   -.736E-06 0.244E-06 -.345E+01   -.628E-06 0.208E-05 0.348E+01   -.206E-17 -.217E-18 -.551E-01   0.765E-09 -.256E-07 -.451E-03
   0.613E+00 0.354E+00 0.165E+01   -.615E+00 -.355E+00 -.167E+01   0.106E-01 0.613E-02 0.257E-02   0.109E-02 0.628E-03 0.964E-03
   -.613E+00 -.354E+00 -.165E+01   0.615E+00 0.355E+00 0.167E+01   -.106E-01 -.613E-02 -.257E-02   -.109E-02 -.628E-03 -.964E-03
   -.613E+00 0.354E+00 0.165E+01   0.615E+00 -.355E+00 -.167E+01   -.106E-01 0.613E-02 0.257E-02   -.109E-02 0.628E-03 0.964E-03
   0.613E+00 -.354E+00 -.165E+01   -.615E+00 0.355E+00 0.167E+01   0.106E-01 -.613E-02 -.257E-02   0.109E-02 -.628E-03 -.964E-03
   0.155E-05 -.708E+00 0.165E+01   0.354E-06 0.711E+00 -.167E+01   -.867E-18 -.123E-01 0.257E-02   0.184E-08 -.126E-02 0.964E-03
   -.152E-05 0.708E+00 -.165E+01   -.609E-06 -.711E+00 0.167E+01   -.434E-17 0.123E-01 -.257E-02   -.178E-08 0.126E-02 -.964E-03
   -.148E-05 0.550E+01 0.389E+01   -.418E-06 -.554E+01 -.391E+01   0.520E-17 0.120E+00 0.874E-01   -.261E-08 -.392E-03 0.519E-04
   0.155E-05 -.550E+01 -.389E+01   0.346E-06 0.554E+01 0.391E+01   -.173E-17 -.120E+00 -.874E-01   0.264E-08 0.392E-03 -.519E-04
   -.477E+01 -.275E+01 0.389E+01   0.480E+01 0.277E+01 -.391E+01   -.104E+00 -.601E-01 0.874E-01   0.340E-03 0.196E-03 0.519E-04
   0.477E+01 0.275E+01 -.389E+01   -.480E+01 -.277E+01 0.391E+01   0.104E+00 0.601E-01 -.874E-01   -.340E-03 -.196E-03 -.519E-04
   0.477E+01 -.275E+01 0.389E+01   -.480E+01 0.277E+01 -.391E+01   0.104E+00 -.601E-01 0.874E-01   -.340E-03 0.196E-03 0.519E-04
   -.477E+01 0.275E+01 -.389E+01   0.480E+01 -.277E+01 0.391E+01   -.104E+00 0.601E-01 -.874E-01   0.340E-03 -.196E-03 -.519E-04
   -.149E-05 0.988E-06 0.138E+01   -.418E-06 0.622E-06 -.139E+01   0.520E-17 0.347E-17 0.569E-02   -.749E-09 -.544E-08 -.367E-03
   0.154E-05 -.877E-06 -.138E+01   0.359E-06 -.584E-06 0.139E+01   -.173E-17 -.347E-17 -.569E-02   0.785E-09 0.373E-08 0.367E-03
   0.155E-05 -.876E-06 0.112E+01   0.356E-06 -.586E-06 -.111E+01   -.173E-17 0.000E+00 0.118E-01   0.101E-09 0.413E-08 0.153E-02
   -.152E-05 0.116E-05 -.112E+01   -.609E-06 0.169E-05 0.111E+01   0.173E-17 0.000E+00 -.118E-01   -.410E-10 -.108E-07 -.153E-02
   0.557E-06 0.281E-06 0.188E-10   0.221E-05 -.701E-06 -.134E-12   -.662E-23 0.000E+00 0.000E+00   -.179E-07 -.236E-10 0.121E-13
   -.295E-06 0.773E-06 -.529E-06   -.345E-05 0.257E-05 -.350E-05   -.265E-22 0.000E+00 0.000E+00   -.673E-10 -.103E-07 0.450E-08
   -.268E-08 0.281E-06 -.363E-10   -.150E-05 -.701E-06 0.290E-13   -.331E-23 0.000E+00 0.000E+00   0.178E-07 -.200E-10 0.392E-11
   0.107E-01 -.617E-02 0.345E+01   -.815E-07 -.701E-06 -.347E+01   -.368E-02 0.213E-02 0.171E-01   -.851E-03 0.491E-03 0.251E-02
   -.107E-01 0.617E-02 -.345E+01   0.221E-05 -.701E-06 0.347E+01   0.368E-02 -.213E-02 -.171E-01   0.851E-03 -.491E-03 -.251E-02
   0.152E-06 0.123E-01 0.345E+01   -.472E-06 -.475E-06 -.347E+01   -.542E-19 -.425E-02 0.171E-01   0.813E-09 -.982E-03 0.251E-02
   -.295E-06 -.123E-01 -.345E+01   -.345E-05 0.257E-05 0.347E+01   0.542E-19 0.425E-02 -.171E-01   -.831E-09 0.982E-03 -.251E-02
   -.107E-01 -.617E-02 0.345E+01   -.661E-06 -.701E-06 -.347E+01   0.368E-02 0.213E-02 0.171E-01   0.851E-03 0.491E-03 0.251E-02
   0.107E-01 0.617E-02 -.345E+01   -.150E-05 -.701E-06 0.347E+01   -.368E-02 -.213E-02 -.171E-01   -.851E-03 -.491E-03 -.251E-02
   -.295E-06 -.211E-06 0.529E-06   -.345E-05 -.397E-05 0.350E-05   0.000E+00 0.000E+00 0.000E+00   -.657E-10 0.103E-07 -.450E-08
   0.148E-06 0.239E-06 0.137E+02   -.472E-06 -.927E-06 -.138E+02   -.271E-18 0.000E+00 0.293E+00   -.193E-08 0.771E-08 -.321E-02
   -.291E-06 -.203E-06 -.137E+02   -.345E-05 -.397E-05 0.138E+02   0.271E-18 0.000E+00 -.293E+00   0.192E-08 0.916E-08 0.321E-02
   0.211E-06 0.281E-06 -.325E-11   -.815E-07 -.701E-06 -.249E-13   -.165E-23 0.000E+00 0.000E+00   -.114E-07 -.175E-10 -.202E-12
   0.152E-06 0.315E-06 0.767E-07   -.472E-06 -.475E-06 0.509E-06   0.000E+00 0.000E+00 0.000E+00   0.495E-10 -.661E-08 -.426E-08
   0.123E-06 0.281E-06 0.127E-10   -.661E-06 -.701E-06 -.746E-13   0.124E-23 0.000E+00 0.000E+00   0.112E-07 -.190E-10 -.238E-11
   0.174E-06 0.282E-06 -.877E-07   -.540E-06 -.106E-05 -.582E-06   0.165E-23 0.000E+00 0.000E+00   0.596E-10 0.766E-08 0.502E-08
 -----------------------------------------------------------------------------------------------
   -.516E-05 0.182E-05 -.798E-07   0.122E-12 0.105E-12 -.355E-14   0.169E-16 0.278E-16 0.555E-16   -.966E-09 0.114E-08 0.981E-09
 
 
 POSITION                                       TOTAL-FORCE (eV/Angst)
 -----------------------------------------------------------------------------------
      2.05350      5.92793      3.95825         0.009869      0.005698      0.009735
      2.05350      1.18559      6.59708        -0.009869     -0.005698     -0.009735
     -2.05350      5.92793      3.95825        -0.009869      0.005698      0.009735
      6.16049      1.18559      6.59708         0.009869     -0.005698     -0.009735
     -0.00000      2.37117      3.95825        -0.000000     -0.011396      0.009735
      4.10699      4.74235      6.59708        -0.000000      0.011396     -0.009735
      4.10699      4.74235      1.31942        -0.000000      0.015329     -0.003203
     -0.00000      2.37117      9.23591        -0.000000     -0.015329      0.003203
      2.05350      1.18559      1.31942        -0.013275     -0.007665     -0.003203
      2.05350      5.92793      9.23591         0.013275      0.007665      0.003203
      6.16049      1.18559      1.31942         0.013275     -0.007665     -0.003203
     -2.05350      5.92793      9.23591        -0.013275      0.007665      0.003203
      0.00000      4.74235      1.31942        -0.000000      0.000000      0.000567
      4.10699      2.37117      9.23591        -0.000000      0.000000     -0.000567
      4.10699      2.37117      3.95825        -0.000000      0.000000      0.027190
      0.00000      4.74235      6.59708        -0.000000      0.000000     -0.027190
      2.05350      5.92793      1.31942         0.009211      0.005318     -0.022025
      2.05350      1.18559      9.23591        -0.009211     -0.005318      0.022025
     -2.05350      5.92793      1.31942        -0.009211      0.005318     -0.022025
      6.16049      1.18559      9.23591         0.009211     -0.005318      0.022025
     -0.00000      2.37117      1.31942        -0.000000     -0.010636     -0.022025
      4.10699      4.74235      9.23591        -0.000000      0.010636      0.022025
      4.10699      4.74235      3.95825        -0.000000      0.085410      0.067032
     -0.00000      2.37117      6.59708         0.000000     -0.085410     -0.067032
      2.05350      1.18559      3.95825        -0.073968     -0.042705      0.067032
      2.05350      5.92793      6.59708         0.073968      0.042705     -0.067032
      6.16049      1.18559      3.95825         0.073968     -0.042705      0.067032
     -2.05350      5.92793      6.59708        -0.073968      0.042705     -0.067032
      0.00000      4.74235      3.95825        -0.000000      0.000000     -0.001998
      4.10699      2.37117      6.59708        -0.000000      0.000000      0.001998
      4.10699      2.37117      1.31942        -0.000000      0.000000      0.025202
      0.00000      4.74235      9.23591        -0.000000      0.000000     -0.025202
      2.05350      3.55676      0.00000        -0.000000      0.000000     -0.000000
      4.10699      0.00000      0.00000        -0.000000      0.000000     -0.000000
     -2.05350      3.55676      0.00000        -0.000000      0.000000     -0.000000
      2.05350      3.55676      2.63883         0.006147     -0.003549      0.005802
      2.05350      3.55676      7.91650        -0.006147      0.003549     -0.005802
      4.10699      0.00000      2.63883        -0.000000      0.007098      0.005802
      4.10699      0.00000      7.91650        -0.000000     -0.007098     -0.005802
     -2.05350      3.55676      2.63883        -0.006147     -0.003549      0.005802
     -2.05350      3.55676      7.91650         0.006147      0.003549     -0.005802
      0.00000      0.00000      0.00000        -0.000000      0.000000     -0.000000
      0.00000      0.00000      2.63883        -0.000000      0.000000      0.191460
      0.00000      0.00000      7.91650        -0.000000      0.000000     -0.191460
      2.05350      3.55676      5.27766        -0.000000      0.000000     -0.000000
      4.10699      0.00000      5.27766        -0.000000      0.000000     -0.000000
     -2.05350      3.55676      5.27766        -0.000000      0.000000     -0.000000
      0.00000      0.00000      5.27766        -0.000000      0.000000     -0.000000
 -----------------------------------------------------------------------------------
    total drift:                               -0.000005      0.000002     -0.000000


--------------------------------------------------------------------------------------------------------



  FREE ENERGIE OF THE ION-ELECTRON SYSTEM (eV)
  ---------------------------------------------------
  free  energy   TOTEN  =      -313.12408723 eV

  energy  without entropy=     -313.08136602  energy(sigma->0) =     -313.10984682
 


--------------------------------------------------------------------------------------------------------


    POTLOK:  cpu time    0.2290: real time    0.2591


--------------------------------------------------------------------------------------------------------


     LOOP+:  cpu time15283.2546: real time15348.5305
    4ORBIT:  cpu time    0.0000: real time    0.0000
 


 total charge     
 
# of ion       s       p       d       tot
------------------------------------------
    1        0.464   0.508   8.445   9.418
    2        0.464   0.508   8.445   9.418
    3        0.464   0.508   8.445   9.418
    4        0.464   0.508   8.445   9.418
    5        0.464   0.508   8.445   9.418
    6        0.464   0.508   8.445   9.418
    7        0.466   0.511   8.445   9.422
    8        0.466   0.511   8.445   9.422
    9        0.466   0.511   8.445   9.422
   10        0.466   0.511   8.445   9.422
   11        0.466   0.511   8.445   9.422
   12        0.466   0.511   8.445   9.422
   13        0.466   0.513   8.444   9.422
   14        0.466   0.513   8.444   9.422
   15        0.466   0.510   8.447   9.423
   16        0.466   0.510   8.447   9.423
   17        1.085   1.256   0.120   2.462
   18        1.085   1.256   0.120   2.462
   19        1.085   1.256   0.120   2.462
   20        1.085   1.256   0.120   2.462
   21        1.085   1.256   0.120   2.462
   22        1.085   1.256   0.120   2.462
   23        1.085   1.253   0.120   2.458
   24        1.085   1.253   0.120   2.458
   25        1.085   1.253   0.120   2.458
   26        1.085   1.253   0.120   2.458
   27        1.085   1.253   0.120   2.458
   28        1.085   1.253   0.120   2.458
   29        1.086   1.256   0.120   2.462
   30        1.086   1.256   0.120   2.462
   31        1.085   1.258   0.120   2.463
   32        1.085   1.258   0.120   2.463
   33        0.278   0.317   5.078   5.674
   34        0.278   0.317   5.078   5.674
   35        0.278   0.317   5.078   5.674
   36        0.278   0.317   5.078   5.674
   37        0.278   0.317   5.078   5.674
   38        0.278   0.317   5.078   5.674
   39        0.278   0.317   5.078   5.674
   40        0.278   0.317   5.078   5.674
   41        0.278   0.317   5.078   5.674
   42        0.277   0.315   5.088   5.681
   43        0.278   0.319   5.064   5.661
   44        0.278   0.319   5.064   5.661
   45        0.279   0.318   5.076   5.673
   46        0.279   0.318   5.076   5.673
   47        0.279   0.318   5.076   5.673
   48        0.352   0.413   6.259   7.024
--------------------------------------------------
tot         29.337  33.422 219.453 282.212
 


 magnetization (x)
 
# of ion       s       p       d       tot
------------------------------------------
    1       -0.022  -0.033   0.172   0.118
    2       -0.022  -0.033   0.172   0.118
    3       -0.022  -0.033   0.172   0.118
    4       -0.022  -0.033   0.172   0.118
    5       -0.022  -0.033   0.172   0.118
    6       -0.022  -0.033   0.172   0.118
    7       -0.023  -0.033   0.173   0.117
    8       -0.023  -0.033   0.173   0.117
    9       -0.023  -0.033   0.173   0.117
   10       -0.023  -0.033   0.173   0.117
   11       -0.023  -0.033   0.173   0.117
   12       -0.023  -0.033   0.173   0.117
   13       -0.024  -0.033   0.176   0.119
   14       -0.024  -0.033   0.176   0.119
   15       -0.022  -0.031   0.179   0.126
   16       -0.022  -0.031   0.179   0.126
   17       -0.016  -0.093   0.004  -0.104
   18       -0.016  -0.093   0.004  -0.104
   19       -0.016  -0.093   0.004  -0.104
   20       -0.016  -0.093   0.004  -0.104
   21       -0.016  -0.093   0.004  -0.104
   22       -0.016  -0.093   0.004  -0.104
   23       -0.014  -0.089   0.003  -0.099
   24       -0.014  -0.089   0.003  -0.099
   25       -0.014  -0.089   0.003  -0.099
   26       -0.014  -0.089   0.003  -0.099
   27       -0.014  -0.089   0.003  -0.099
   28       -0.014  -0.089   0.003  -0.099
   29       -0.015  -0.093   0.004  -0.104
   30       -0.015  -0.093   0.004  -0.104
   31       -0.016  -0.096   0.005  -0.107
   32       -0.016  -0.096   0.005  -0.107
   33        0.020   0.018   2.904   2.942
   34        0.020   0.018   2.904   2.942
   35        0.020   0.018   2.904   2.942
   36        0.020   0.018   2.904   2.942
   37        0.020   0.018   2.904   2.942
   38        0.020   0.018   2.904   2.942
   39        0.020   0.018   2.904   2.942
   40        0.020   0.018   2.904   2.942
   41        0.020   0.018   2.904   2.942
   42        0.019   0.018   2.842   2.878
   43        0.021   0.018   3.003   3.042
   44        0.021   0.018   3.003   3.042
   45        0.019   0.019   2.908   2.946
   46        0.019   0.019   2.908   2.946
   47        0.019   0.019   2.908   2.946
   48        0.014   0.008   2.358   2.380
--------------------------------------------------
tot         -0.286  -1.712  48.913  46.915
 

 total amount of memory used by VASP MPI-rank0   612943. kBytes
=======================================================================

   base      :      30000. kBytes
   nonl-proj :      91070. kBytes
   fftplans  :       4706. kBytes
   grid      :      13171. kBytes
   one-center:        248. kBytes
   wavefun   :     473748. kBytes
 
  
  
 General timing and accounting informations for this job:
 ========================================================
  
                  Total CPU time used (sec):    15540.317
                            User time (sec):    15400.152
                          System time (sec):      140.166
                         Elapsed time (sec):    15613.810
  
                   Maximum memory used (kb):      870924.
                   Average memory used (kb):           0.
  
                          Minor page faults:        76068
                          Major page faults:          651
                 Voluntary context switches:         7016
