 running on   24 total cores
 distrk:  each k-point on   24 cores,    1 groups
 distr:  one band on    6 cores,    4 groups
 using from now: INCAR     
 vasp.6.1.1 19Jun20 (build Nov 30 2020 11:51:22) complex                        
  
 POSCAR found type information on POSCAR NiGeMnFe
 POSCAR found :  4 types and      48 ions
 scaLAPACK will be used
 -----------------------------------------------------------------------------
|                                                                             |
|               ----> ADVICE to this user running VASP <----                  |
|                                                                             |
|     You have a (more or less) 'large supercell' and for larger cells it     |
|     might be more efficient to use real-space projection operators.         |
|     Therefore, try LREAL= Auto in the INCAR file.                           |
|     Mind: For very accurate calculation, you might also keep the            |
|     reciprocal projection scheme (i.e. LREAL=.FALSE.).                      |
|                                                                             |
 -----------------------------------------------------------------------------

 LDA part: xc-table for Pade appr. of Perdew
 POSCAR, INCAR and KPOINTS ok, starting setup
 FFT: planning ...
 WAVECAR not read
 entering main loop
       N       E                     dE             d eps       ncg     rms          rms(c)
DAV:   1     0.277497139657E+04    0.27750E+04   -0.10917E+05 99384   0.104E+03
DAV:   2     0.161615372993E+03   -0.26134E+04   -0.23323E+04 99360   0.264E+02
DAV:   3    -0.265972352902E+03   -0.42759E+03   -0.35128E+03 99512   0.122E+02
DAV:   4    -0.296624471688E+03   -0.30652E+02   -0.29276E+02122088   0.385E+01
DAV:   5    -0.297417541558E+03   -0.79307E+00   -0.79116E+00121040   0.645E+00    0.992E+01
DAV:   6    -0.383068408333E+03   -0.85651E+02   -0.23489E+02126144   0.105E+02    0.114E+02
DAV:   7    -0.312164684790E+03    0.70904E+02   -0.17990E+02122408   0.875E+01    0.668E+01
DAV:   8    -0.336931584981E+03   -0.24767E+02   -0.43735E+01142024   0.466E+01    0.848E+01
DAV:   9    -0.319462594850E+03    0.17469E+02   -0.34863E+01140480   0.362E+01    0.437E+01
DAV:  10    -0.323341628155E+03   -0.38790E+01   -0.31611E+01127912   0.488E+01    0.631E+01
DAV:  11    -0.306032274927E+03    0.17309E+02   -0.12397E+01156120   0.365E+01    0.240E+01
DAV:  12    -0.313661413535E+03   -0.76291E+01   -0.10887E+01141512   0.196E+01    0.286E+01
DAV:  13    -0.310667659110E+03    0.29938E+01   -0.41071E+00137304   0.207E+01    0.131E+01
DAV:  14    -0.313913918928E+03   -0.32463E+01   -0.43016E+00153800   0.167E+01    0.229E+01
DAV:  15    -0.312593014034E+03    0.13209E+01   -0.32802E+00143496   0.148E+01    0.751E+00
DAV:  16    -0.312741452512E+03   -0.14844E+00   -0.98681E-01164568   0.512E+00    0.599E+00
DAV:  17    -0.312730698943E+03    0.10754E-01   -0.26317E-01129504   0.411E+00    0.481E+00
DAV:  18    -0.312808193072E+03   -0.77494E-01   -0.12004E-01142120   0.207E+00    0.410E+00
DAV:  19    -0.312881474351E+03   -0.73281E-01   -0.79163E-02141256   0.229E+00    0.395E+00
DAV:  20    -0.312915047007E+03   -0.33573E-01   -0.43782E-02144280   0.213E+00    0.315E+00
DAV:  21    -0.312981692671E+03   -0.66646E-01   -0.17714E-01167328   0.289E+00    0.333E+00
DAV:  22    -0.312987795037E+03   -0.61024E-02   -0.70449E-02152240   0.212E+00    0.272E+00
DAV:  23    -0.312961284601E+03    0.26510E-01   -0.43518E-02133752   0.167E+00    0.841E-01
DAV:  24    -0.312964601908E+03   -0.33173E-02   -0.75582E-03152392   0.362E-01    0.754E-01
DAV:  25    -0.312966326164E+03   -0.17243E-02   -0.25249E-03135440   0.492E-01    0.763E-01
DAV:  26    -0.312964896805E+03    0.14294E-02   -0.19704E-03152504   0.486E-01    0.626E-01
DAV:  27    -0.312965911484E+03   -0.10147E-02   -0.16269E-03158232   0.244E-01    0.415E-01
DAV:  28    -0.312966123864E+03   -0.21238E-03   -0.70133E-04136112   0.266E-01    0.324E-01
DAV:  29    -0.312966146360E+03   -0.22496E-04   -0.27793E-04143328   0.155E-01    0.204E-01
DAV:  30    -0.312966228337E+03   -0.81977E-04   -0.48384E-04149504   0.952E-02    0.557E-02
DAV:  31    -0.312966252023E+03   -0.23686E-04   -0.13880E-04144048   0.418E-02    0.302E-02
DAV:  32    -0.312966257924E+03   -0.59007E-05   -0.54081E-05116008   0.228E-02    0.242E-02
DAV:  33    -0.312966257908E+03    0.16229E-07   -0.31700E-06110240   0.138E-02
   1 F= -.31296626E+03 E0= -.31295340E+03  d E =-.385615E-01  mag=    49.0571
