 vasp.6.1.1 19Jun20 (build Nov 30 2020 11:51:22) complex                        
  
 executed on             LinuxIFC date 2021.03.24  02:05:40
 running on   24 total cores
 distrk:  each k-point on   24 cores,    1 groups
 distr:  one band on NCORE=   6 cores,    4 groups


--------------------------------------------------------------------------------------------------------


 INCAR:
 POTCAR:    PAW_PBE Ni 02Aug2007                  
 POTCAR:    PAW_PBE Ge 05Jan2001                  
 POTCAR:    PAW_PBE Mn 06Sep2000                  
 POTCAR:    PAW_PBE Fe 06Sep2000                  
 POTCAR:    PAW_PBE Ni 02Aug2007                  
   SHA256 =  0534bc51ca8003dfef23f56753fef9fdd3e22eac8d719fccacb59f3e6b7a69c7 Ni/POTCAR             
   COPYR  = (c) Copyright 02Aug2007 Georg Kresse                                                    
   COPYR  = This file is part of the software VASP. Any use, copying, and all other rights are regul
   COPYR  = If you do not have a valid VASP license, you may not use, copy or distribute this file. 
   VRHFIN =Ni:                                                                                      
   LEXCH  = PE                                                                                      
   EATOM  =  1077.6739 eV,   79.2068 Ry                                                             
                                                                                                    
   TITEL  = PAW_PBE Ni 02Aug2007                                                                    
   LULTRA =        F    use ultrasoft PP ?                                                          
   IUNSCR =        1    unscreen: 0-lin 1-nonlin 2-no                                               
   RPACOR =    2.000    partial core radius                                                         
   POMASS =   58.690; ZVAL   =   10.000    mass and valenz                                          
   RCORE  =    2.300    outmost cutoff radius                                                       
   RWIGS  =    2.430; RWIGS  =    1.286    wigner-seitz radius (au A)                               
   ENMAX  =  269.532; ENMIN  =  202.149 eV                                                          
   RCLOC  =    1.201    cutoff for local pot                                                        
   LCOR   =        T    correct aug charges                                                         
   LPAW   =        T    paw PP                                                                      
   EAUG   =  544.565                                                                                
   DEXC   =    0.000                                                                                
   RMAX   =    2.357    core radius for proj-oper                                                   
   RAUG   =    1.300    factor for augmentation sphere                                              
   RDEP   =    2.390    radius for radial grids                                                     
   RDEPT  =    1.838    core radius for aug-charge                                                  
                                                                                                    
   Atomic configuration                                                                             
    9 entries                                                                                       
     n  l   j            E        occ.                                                              
     1  0  0.50     -8206.4253   2.0000                                                             
     2  0  0.50      -976.1748   2.0000                                                             
     2  1  1.50      -839.0571   6.0000                                                             
     3  0  0.50      -105.9991   2.0000                                                             
     3  1  1.50       -66.4603   6.0000                                                             
     3  2  2.50        -4.6458   9.0000                                                             
     4  0  0.50        -4.4926   1.0000                                                             
     4  1  1.50        -4.0817   0.0000                                                             
     4  3  2.50        -1.3606   0.0000                                                             
   Description                                                                                      
     l       E           TYP  RCUT    TYP  RCUT                                                     
     2     -4.6457903     23  2.300                                                                 
     2     -6.0063729     23  2.300                                                                 
     0     -4.4925590     23  2.300                                                                 
     0      5.0102601     23  2.300                                                                 
     1     -2.7211652     23  2.300                                                                 
     1     16.5183231     23  2.300                                                                 
  local pseudopotential read in
  partial core-charges read in
  partial kinetic energy density read in
  atomic valenz-charges read in
  non local Contribution for L=           2  read in
    real space projection operators read in
  non local Contribution for L=           2  read in
    real space projection operators read in
  non local Contribution for L=           0  read in
    real space projection operators read in
  non local Contribution for L=           0  read in
    real space projection operators read in
  non local Contribution for L=           1  read in
    real space projection operators read in
  non local Contribution for L=           1  read in
    real space projection operators read in
    PAW grid and wavefunctions read in
 
   number of l-projection  operators is LMAX  =           6
   number of lm-projection operators is LMMAX =          18
 
 POTCAR:    PAW_PBE Ge 05Jan2001                  
   SHA256 =  7ff11deedcda39f1950abeda971a84a1f98a719a97bc9679a0df455c008734f8 Ge/POTCAR             
   COPYR  = (c) Copyright 05Jan2001 Georg Kresse                                                    
   COPYR  = This file is part of the software VASP. Any use, copying, and all other rights are regul
   COPYR  = If you do not have a valid VASP license, you may not use, copy or distribute this file. 
   VRHFIN =Ge: s2p2                                                                                 
   LEXCH  = PE                                                                                      
   EATOM  =   104.9960 eV,    7.7170 Ry                                                             
                                                                                                    
   TITEL  = PAW_PBE Ge 05Jan2001                                                                    
   LULTRA =        F    use ultrasoft PP ?                                                          
   IUNSCR =        1    unscreen: 0-lin 1-nonlin 2-no                                               
   RPACOR =    2.170    partial core radius                                                         
   POMASS =   72.610; ZVAL   =    4.000    mass and valenz                                          
   RCORE  =    2.300    outmost cutoff radius                                                       
   RWIGS  =    2.300; RWIGS  =    1.217    wigner-seitz radius (au A)                               
   ENMAX  =  173.807; ENMIN  =  130.355 eV                                                          
   ICORE  =        3    local potential                                                             
   LCOR   =        T    correct aug charges                                                         
   LPAW   =        T    paw PP                                                                      
   EAUG   =  385.843                                                                                
   DEXC   =    0.000                                                                                
   RMAX   =    2.342    core radius for proj-oper                                                   
   RAUG   =    1.300    factor for augmentation sphere                                              
   RDEP   =    2.318    radius for radial grids                                                     
   RDEPT  =    2.103    core radius for aug-charge                                                  
                                                                                                    
   Atomic configuration                                                                             
   10 entries                                                                                       
     n  l   j            E        occ.                                                              
     1  0  0.50    -10959.8463   2.0000                                                             
     2  0  0.50     -1371.6056   2.0000                                                             
     2  1  1.50     -1198.4791   6.0000                                                             
     3  0  0.50      -168.4733   2.0000                                                             
     3  1  1.50      -115.6019   6.0000                                                             
     3  2  2.50       -29.3106  10.0000                                                             
     4  0  0.50       -11.7309   2.0000                                                             
     4  1  0.50        -3.8952   2.0000                                                             
     4  2  1.50        -4.0817   0.0000                                                             
     4  3  2.50        -4.0817   0.0000                                                             
   Description                                                                                      
     l       E           TYP  RCUT    TYP  RCUT                                                     
     0    -11.7309493     23  2.300                                                                 
     0     -7.4578696     23  2.300                                                                 
     1     -3.8952261     23  2.300                                                                 
     1      6.1178114     23  2.300                                                                 
     2     -4.0817478     23  2.300                                                                 
     3     -1.3605826      7  2.300                                                                 
  local pseudopotential read in
  partial core-charges read in
  partial kinetic energy density read in
  atomic valenz-charges read in
  non local Contribution for L=           0  read in
    real space projection operators read in
  non local Contribution for L=           0  read in
    real space projection operators read in
  non local Contribution for L=           1  read in
    real space projection operators read in
  non local Contribution for L=           1  read in
    real space projection operators read in
  non local Contribution for L=           2  read in
    real space projection operators read in
    PAW grid and wavefunctions read in
 
   number of l-projection  operators is LMAX  =           5
   number of lm-projection operators is LMMAX =          13
 
 POTCAR:    PAW_PBE Mn 06Sep2000                  
   SHA256 =  791c87526310ff945dc83749a51ee60ee299d345ff72743aeb14609b9ed68bfc Mn/POTCAR             
   COPYR  = (c) Copyright 06Sep2000 Georg Kresse                                                    
   COPYR  = This file is part of the software VASP. Any use, copying, and all other rights are regul
   COPYR  = If you do not have a valid VASP license, you may not use, copy or distribute this file. 
   VRHFIN =Mn: d6 s1                                                                                
   LEXCH  = PE                                                                                      
   EATOM  =   416.7541 eV,   30.6306 Ry                                                             
                                                                                                    
   TITEL  = PAW_PBE Mn 06Sep2000                                                                    
   LULTRA =        F    use ultrasoft PP ?                                                          
   IUNSCR =        1    unscreen: 0-lin 1-nonlin 2-no                                               
   RPACOR =    2.000    partial core radius                                                         
   POMASS =   54.938; ZVAL   =    7.000    mass and valenz                                          
   RCORE  =    2.300    outmost cutoff radius                                                       
   RWIGS  =    2.500; RWIGS  =    1.323    wigner-seitz radius (au A)                               
   ENMAX  =  269.864; ENMIN  =  202.398 eV                                                          
   RCLOC  =    1.725    cutoff for local pot                                                        
   LCOR   =        T    correct aug charges                                                         
   LPAW   =        T    paw PP                                                                      
   EAUG   =  500.711                                                                                
   DEXC   =    0.000                                                                                
   RMAX   =    2.343    core radius for proj-oper                                                   
   RAUG   =    1.300    factor for augmentation sphere                                              
   RDEP   =    2.338    radius for radial grids                                                     
   RDEPT  =    1.911    core radius for aug-charge                                                  
                                                                                                    
   Atomic configuration                                                                             
    9 entries                                                                                       
     n  l   j            E        occ.                                                              
     1  0  0.50     -6424.8288   2.0000                                                             
     2  0  0.50      -739.1154   2.0000                                                             
     2  1  1.50      -625.3949   6.0000                                                             
     3  0  0.50       -81.6100   2.0000                                                             
     3  1  1.50       -50.4667   6.0000                                                             
     3  2  2.50        -3.3745   6.0000                                                             
     4  0  0.50        -4.1331   1.0000                                                             
     4  1  0.50        -4.0817   0.0000                                                             
     4  3  2.50        -1.3606   0.0000                                                             
   Description                                                                                      
     l       E           TYP  RCUT    TYP  RCUT                                                     
     2     -3.3744664     23  2.300                                                                 
     2     -4.7350490     23  2.300                                                                 
     0     -4.1331408     23  2.300                                                                 
     0      7.6656614     23  2.300                                                                 
     1     -2.7211652     23  2.300                                                                 
     1     20.4087390     23  2.300                                                                 
  local pseudopotential read in
  partial core-charges read in
  partial kinetic energy density read in
  atomic valenz-charges read in
  non local Contribution for L=           2  read in
    real space projection operators read in
  non local Contribution for L=           2  read in
    real space projection operators read in
  non local Contribution for L=           0  read in
    real space projection operators read in
  non local Contribution for L=           0  read in
    real space projection operators read in
  non local Contribution for L=           1  read in
    real space projection operators read in
  non local Contribution for L=           1  read in
    real space projection operators read in
    PAW grid and wavefunctions read in
 
   number of l-projection  operators is LMAX  =           6
   number of lm-projection operators is LMMAX =          18
 
 POTCAR:    PAW_PBE Fe 06Sep2000                  
   SHA256 =  cd5a22d9368cc8b5cc476bea79732366149640da08ac9009b0e1b7fc627eea28 Fe/POTCAR             
   COPYR  = (c) Copyright 06Sep2000 Georg Kresse                                                    
   COPYR  = This file is part of the software VASP. Any use, copying, and all other rights are regul
   COPYR  = If you do not have a valid VASP license, you may not use, copy or distribute this file. 
   VRHFIN =Fe:  d7 s1                                                                               
   LEXCH  = PE                                                                                      
   EATOM  =   594.3153 eV,   43.6809 Ry                                                             
                                                                                                    
   TITEL  = PAW_PBE Fe 06Sep2000                                                                    
   LULTRA =        F    use ultrasoft PP ?                                                          
   IUNSCR =        1    unscreen: 0-lin 1-nonlin 2-no                                               
   RPACOR =    2.000    partial core radius                                                         
   POMASS =   55.847; ZVAL   =    8.000    mass and valenz                                          
   RCORE  =    2.300    outmost cutoff radius                                                       
   RWIGS  =    2.460; RWIGS  =    1.302    wigner-seitz radius (au A)                               
   ENMAX  =  267.882; ENMIN  =  200.911 eV                                                          
   RCLOC  =    1.701    cutoff for local pot                                                        
   LCOR   =        T    correct aug charges                                                         
   LPAW   =        T    paw PP                                                                      
   EAUG   =  511.368                                                                                
   DEXC   =    0.000                                                                                
   RMAX   =    2.356    core radius for proj-oper                                                   
   RAUG   =    1.300    factor for augmentation sphere                                              
   RDEP   =    2.442    radius for radial grids                                                     
   RDEPT  =    1.890    core radius for aug-charge                                                  
                                                                                                    
   Atomic configuration                                                                             
    9 entries                                                                                       
     n  l   j            E        occ.                                                              
     1  0  0.50     -6993.8440   2.0000                                                             
     2  0  0.50      -814.6047   2.0000                                                             
     2  1  1.50      -693.3689   6.0000                                                             
     3  0  0.50       -89.4732   2.0000                                                             
     3  1  1.50       -55.6373   6.0000                                                             
     3  2  2.50        -3.8151   7.0000                                                             
     4  0  0.50        -4.2551   1.0000                                                             
     4  1  1.50        -3.4015   0.0000                                                             
     4  3  2.50        -1.3606   0.0000                                                             
   Description                                                                                      
     l       E           TYP  RCUT    TYP  RCUT                                                     
     2     -3.8151135     23  2.300                                                                 
     2     -5.1756961     23  2.300                                                                 
     0     -4.2550963     23  2.300                                                                 
     0      7.2035603     23  2.300                                                                 
     1     -2.7211652     23  2.300                                                                 
     1     18.4316424     23  2.300                                                                 
  local pseudopotential read in
  partial core-charges read in
  partial kinetic energy density read in
  atomic valenz-charges read in
  non local Contribution for L=           2  read in
    real space projection operators read in
  non local Contribution for L=           2  read in
    real space projection operators read in
  non local Contribution for L=           0  read in
    real space projection operators read in
  non local Contribution for L=           0  read in
    real space projection operators read in
  non local Contribution for L=           1  read in
    real space projection operators read in
  non local Contribution for L=           1  read in
    real space projection operators read in
    PAW grid and wavefunctions read in
 
   number of l-projection  operators is LMAX  =           6
   number of lm-projection operators is LMMAX =          18
 
 -----------------------------------------------------------------------------
|                                                                             |
|               ----> ADVICE to this user running VASP <----                  |
|                                                                             |
|     You have a (more or less) 'large supercell' and for larger cells it     |
|     might be more efficient to use real-space projection operators.         |
|     Therefore, try LREAL= Auto in the INCAR file.                           |
|     Mind: For very accurate calculation, you might also keep the            |
|     reciprocal projection scheme (i.e. LREAL=.FALSE.).                      |
|                                                                             |
 -----------------------------------------------------------------------------

  PAW_PBE Ni 02Aug2007                  :
 energy of atom  1       EATOM=-1077.6739
 kinetic energy error for atom=    0.0038 (will be added to EATOM!!)
  PAW_PBE Ge 05Jan2001                  :
 energy of atom  2       EATOM= -104.9960
 kinetic energy error for atom=    0.0003 (will be added to EATOM!!)
  PAW_PBE Mn 06Sep2000                  :
 energy of atom  3       EATOM= -416.7541
 kinetic energy error for atom=    0.0033 (will be added to EATOM!!)
  PAW_PBE Fe 06Sep2000                  :
 energy of atom  4       EATOM= -594.3153
 kinetic energy error for atom=    0.0034 (will be added to EATOM!!)
 
 
 POSCAR: MnFeNiGe_hex
  positions in direct lattice
  velocities in cartesian coordinates
 exchange correlation table for  LEXCH =        8
   RHO(1)=    0.500       N(1)  =     2000
   RHO(2)=  100.500       N(2)  =     4000
 


--------------------------------------------------------------------------------------------------------


 ion  position               nearest neighbor table
   1  0.667  0.833  0.375-  27 2.38  29 2.38  23 2.38  17 2.65  26 2.65  36 2.73  45 2.73  38 2.73
                            46 2.73  43 2.73  48 2.73
   2  0.333  0.167  0.625-  28 2.38  30 2.38  24 2.38  25 2.65  18 2.65  39 2.73  44 2.73  46 2.73
                            48 2.73  37 2.73  45 2.73
   3  0.167  0.833  0.375-  25 2.38  23 2.38  29 2.38  28 2.65  19 2.65  40 2.73  47 2.73  43 2.73
                            48 2.73  38 2.73  46 2.73
   4  0.833  0.167  0.625-  26 2.38  24 2.38  30 2.38  27 2.65  20 2.65  39 2.73  44 2.73  46 2.73
                            48 2.73  47 2.73  41 2.73
   5  0.167  0.333  0.375-  29 2.38  27 2.38  25 2.38  24 2.65  21 2.65  43 2.73  48 2.73  47 2.73
                            40 2.73  36 2.73  45 2.73
   6  0.833  0.667  0.625-  30 2.38  28 2.38  26 2.38  23 2.65  22 2.65  37 2.73  41 2.73  45 2.73
                            47 2.73  44 2.73  48 2.73
   7  0.833  0.667  0.125-  31 2.38  19 2.38  17 2.38  23 2.65  22 2.65  33 2.73  35 2.73  36 2.73
                            40 2.73  42 2.73  43 2.73
   8  0.167  0.333  0.875-  18 2.38  32 2.38  20 2.38  24 2.65  21 2.65  42 2.73  44 2.73  35 2.73
                            41 2.73  37 2.73  33 2.73
   9  0.333  0.167  0.125-  19 2.38  31 2.38  21 2.38  25 2.65  18 2.65  34 2.73  38 2.73  42 2.73
                            43 2.73  36 2.73  33 2.73
  10  0.667  0.833  0.875-  20 2.38  32 2.38  22 2.38  26 2.65  17 2.65  33 2.73  37 2.73  34 2.73
                            39 2.73  42 2.73  44 2.73
  11  0.833  0.167  0.125-  17 2.38  21 2.38  31 2.38  27 2.65  20 2.65  34 2.73  38 2.73  42 2.73
                            43 2.73  35 2.73  40 2.73
  12  0.167  0.833  0.875-  18 2.38  22 2.38  32 2.38  28 2.65  19 2.65  35 2.73  41 2.73  42 2.73
                            44 2.73  39 2.73  34 2.73
  13  0.333  0.667  0.125-  21 2.38  17 2.38  19 2.38  29 2.65  32 2.65  33 2.73  35 2.73  36 2.73
                            40 2.73  38 2.73  34 2.73
  14  0.667  0.333  0.875-  22 2.38  20 2.38  18 2.38  30 2.65  31 2.65  34 2.73  39 2.73  37 2.73
                            33 2.73  35 2.73  41 2.73
  15  0.667  0.333  0.375-  23 2.38  25 2.38  27 2.38  30 2.65  31 2.65  38 2.73  46 2.73  45 2.73
                            36 2.73  40 2.73  47 2.73
  16  0.333  0.667  0.625-  24 2.38  26 2.38  28 2.38  29 2.65  32 2.65  37 2.73  41 2.73  45 2.73
                            47 2.73  46 2.73  39 2.73
  17  0.667  0.833  0.125-  11 2.38  13 2.38   7 2.38   1 2.65  10 2.65  33 2.73  36 2.73  34 2.73
                            38 2.73  42 2.73  43 2.73
  18  0.333  0.167  0.875-   8 2.38  12 2.38  14 2.38   2 2.65   9 2.65  42 2.73  44 2.73  33 2.73
                            37 2.73  34 2.73  39 2.73
  19  0.167  0.833  0.125-   9 2.38   7 2.38  13 2.38  12 2.65   3 2.65  35 2.73  40 2.73  42 2.73
                            43 2.73  38 2.73  34 2.73
  20  0.833  0.167  0.875-  10 2.38   8 2.38  14 2.38  11 2.65   4 2.65  34 2.73  39 2.73  42 2.73
                            44 2.73  35 2.73  41 2.73
  21  0.167  0.333  0.125-  13 2.38  11 2.38   9 2.38   8 2.65   5 2.65  42 2.73  43 2.73  35 2.73
                            40 2.73  36 2.73  33 2.73
  22  0.833  0.667  0.875-  14 2.38  12 2.38  10 2.38   7 2.65   6 2.65  33 2.73  35 2.73  37 2.73
                            41 2.73  42 2.73  44 2.73
  23  0.833  0.667  0.375-  15 2.38   3 2.38   1 2.38   7 2.65   6 2.65  36 2.73  40 2.73  45 2.73
                            47 2.73  43 2.73  48 2.73
  24  0.167  0.333  0.625-  16 2.38   4 2.38   2 2.38   8 2.65   5 2.65  44 2.73  48 2.73  47 2.73
                            41 2.73  37 2.73  45 2.73
  25  0.333  0.167  0.375-   3 2.38  15 2.38   5 2.38   9 2.65   2 2.65  38 2.73  43 2.73  46 2.73
                            48 2.73  36 2.73  45 2.73
  26  0.667  0.833  0.625-   4 2.38  16 2.38   6 2.38  10 2.65   1 2.65  37 2.73  45 2.73  39 2.73
                            46 2.73  44 2.73  48 2.73
  27  0.833  0.167  0.375-   1 2.38   5 2.38  15 2.38  11 2.65   4 2.65  38 2.73  43 2.73  46 2.73
                            48 2.73  47 2.73  40 2.73
  28  0.167  0.833  0.625-   2 2.38   6 2.38  16 2.38  12 2.65   3 2.65  41 2.73  47 2.73  44 2.73
                            48 2.73  39 2.73  46 2.73
  29  0.333  0.667  0.375-   5 2.38   1 2.38   3 2.38  13 2.65  16 2.65  36 2.73  40 2.73  45 2.73
                            47 2.73  46 2.73  38 2.73
  30  0.667  0.333  0.625-   6 2.38   2 2.38   4 2.38  14 2.65  15 2.65  39 2.73  46 2.73  45 2.73
                            37 2.73  41 2.73  47 2.73
  31  0.667  0.333  0.125-   7 2.38   9 2.38  11 2.38  14 2.65  15 2.65  34 2.73  38 2.73  36 2.73
                            33 2.73  35 2.73  40 2.73
  32  0.333  0.667  0.875-   8 2.38  10 2.38  12 2.38  13 2.65  16 2.65  33 2.73  35 2.73  37 2.73
                            41 2.73  39 2.73  34 2.73
  33  0.500  0.500  0.000-  36 2.65  37 2.65  10 2.73  17 2.73   7 2.73  22 2.73  31 2.73  32 2.73
                            13 2.73  14 2.73   9 2.73  18 2.73  21 2.73   8 2.73
  34  0.500  0.000  0.000-  38 2.65  39 2.65  14 2.73  31 2.73  17 2.73  20 2.73  10 2.73  11 2.73
                             9 2.73  13 2.73  32 2.73  19 2.73  12 2.73  18 2.73
  35  0.000  0.500  0.000-  40 2.65  41 2.65  12 2.73  19 2.73   8 2.73  21 2.73  22 2.73  32 2.73
                             7 2.73  13 2.73  20 2.73  11 2.73  31 2.73  14 2.73
  36  0.500  0.500  0.250-  33 2.65  45 2.65   1 2.73  17 2.73   7 2.73  23 2.73  29 2.73  31 2.73
                            13 2.73  15 2.73   9 2.73  25 2.73   5 2.73  21 2.73
  37  0.500  0.500  0.750-  33 2.65  45 2.65  10 2.73  26 2.73  22 2.73   6 2.73  30 2.73  32 2.73
                            14 2.73  16 2.73   2 2.73  18 2.73  24 2.73   8 2.73
  38  0.500  0.000  0.250-  34 2.65  46 2.65  15 2.73  31 2.73  17 2.73  25 2.73  27 2.73   9 2.73
                            11 2.73   1 2.73  29 2.73  13 2.73   3 2.73  19 2.73
  39  0.500  0.000  0.750-  34 2.65  46 2.65  14 2.73  30 2.73  20 2.73  26 2.73   4 2.73  10 2.73
                             2 2.73  16 2.73  32 2.73  12 2.73  28 2.73  18 2.73
  40  0.000  0.500  0.250-  35 2.65  47 2.65   3 2.73  19 2.73   5 2.73  21 2.73  23 2.73  29 2.73
                             7 2.73  13 2.73  27 2.73  11 2.73  15 2.73  31 2.73
  41  0.000  0.500  0.750-  35 2.65  47 2.65  12 2.73  28 2.73  22 2.73  24 2.73   8 2.73  32 2.73
                             6 2.73  16 2.73   4 2.73  20 2.73  30 2.73  14 2.73
  42  0.000  0.000  0.000-  43 2.65  44 2.65  18 2.73   8 2.73  21 2.73  19 2.73  20 2.73  11 2.73
                            12 2.73   9 2.73   7 2.73  22 2.73  17 2.73  10 2.73
  43  0.000  0.000  0.250-  42 2.65  48 2.65   5 2.73  21 2.73  19 2.73   3 2.73  25 2.73  27 2.73
                             9 2.73  11 2.73   7 2.73  23 2.73  17 2.73   1 2.73
  44  0.000  0.000  0.750-  42 2.65  48 2.65  18 2.73   8 2.73  24 2.73  20 2.73   2 2.73  28 2.73
                            12 2.73   4 2.73   6 2.73  22 2.73  26 2.73  10 2.73
  45  0.500  0.500  0.500-  36 2.65  37 2.65   1 2.73  26 2.73  23 2.73   6 2.73  29 2.73  30 2.73
                            15 2.73  16 2.73  25 2.73   2 2.73   5 2.73  24 2.73
  46  0.500  0.000  0.500-  38 2.65  39 2.65  15 2.73  30 2.73  25 2.73  26 2.73  27 2.73   2 2.73
                             4 2.73   1 2.73  29 2.73  16 2.73   3 2.73  28 2.73
  47  0.000  0.500  0.500-  40 2.65  41 2.65   3 2.73  28 2.73  23 2.73  24 2.73   5 2.73  29 2.73
                             6 2.73  16 2.73   4 2.73  27 2.73  15 2.73  30 2.73
  48  0.000  0.000  0.500-  43 2.65  44 2.65   5 2.73  24 2.73   3 2.73  25 2.73  27 2.73  28 2.73
                             4 2.73   2 2.73   6 2.73  23 2.73   1 2.73  26 2.73
 
  LATTYP: Found a hexagonal cell.
 ALAT       =     8.2548510084
 C/A-ratio  =     1.2850434344
  
  Lattice vectors:
  
 A1 = (   8.2548510085,   0.0000000000,   0.0000000000)
 A2 = (  -4.1274255042,   7.1489106778,   0.0000000000)
 A3 = (   0.0000000000,   0.0000000000,  10.6078420900)


Analysis of symmetry for initial positions (statically):
=====================================================================
 Subroutine PRICEL returns:
 Original cell was already a primitive cell.
 

 Routine SETGRP: Setting up the symmetry group for a 
 hexagonal supercell.


 Subroutine GETGRP returns: Found 12 space group operations
 (whereof 12 operations were pure point group operations)
 out of a pool of 24 trial point group operations.


The static configuration has the point symmetry D_3d.


Analysis of symmetry for dynamics (positions and initial velocities):
=====================================================================
 Subroutine PRICEL returns:
 Original cell was already a primitive cell.
 

 Routine SETGRP: Setting up the symmetry group for a 
 hexagonal supercell.


 Subroutine GETGRP returns: Found 12 space group operations
 (whereof 12 operations were pure point group operations)
 out of a pool of 24 trial point group operations.


The dynamic configuration has the point symmetry D_3d.


Analysis of structural, dynamic, and magnetic symmetry:
=====================================================================
 Subroutine PRICEL returns:
 Original cell was already a primitive cell.
 

 Routine SETGRP: Setting up the symmetry group for a 
 hexagonal supercell.


 Subroutine GETGRP returns: Found 12 space group operations
 (whereof 12 operations were pure point group operations)
 out of a pool of 24 trial point group operations.


The magnetic configuration has the point symmetry D_3d.


 Subroutine INISYM returns: Found 12 space group operations
 (whereof 12 operations are pure point group operations),
 and found     1 'primitive' translations


----------------------------------------------------------------------------------------

                                     Primitive cell                                     

  volume of cell :     626.0026

  direct lattice vectors                    reciprocal lattice vectors
     8.254851008  0.000000000  0.000000000     0.121140890  0.069940726  0.000000000
    -4.127425504  7.148910678  0.000000000     0.000000000  0.139881451  0.000000000
     0.000000000  0.000000000 10.607842090     0.000000000  0.000000000  0.094269880

  length of vectors
     8.254851008  8.254851008 10.607842090     0.139881451  0.139881451  0.094269880

  position of ions in fractional coordinates (direct lattice)
     0.666666666  0.833333333  0.375000000
     0.333333333  0.166666666  0.625000000
     0.166666666  0.833333333  0.375000000
     0.833333333  0.166666666  0.625000000
     0.166666666  0.333333333  0.375000000
     0.833333333  0.666666666  0.625000000
     0.833333333  0.666666666  0.125000000
     0.166666666  0.333333333  0.875000000
     0.333333333  0.166666666  0.125000000
     0.666666666  0.833333333  0.875000000
     0.833333333  0.166666666  0.125000000
     0.166666666  0.833333333  0.875000000
     0.333333333  0.666666666  0.125000000
     0.666666666  0.333333333  0.875000000
     0.666666666  0.333333333  0.375000000
     0.333333333  0.666666666  0.625000000
     0.666666666  0.833333333  0.125000000
     0.333333313  0.166666666  0.875000000
     0.166666666  0.833333333  0.125000000
     0.833333333  0.166666666  0.875000000
     0.166666666  0.333333333  0.125000000
     0.833333333  0.666666666  0.875000000
     0.833333333  0.666666666  0.375000000
     0.166666666  0.333333333  0.625000000
     0.333333333  0.166666666  0.375000000
     0.666666666  0.833333333  0.625000000
     0.833333333  0.166666666  0.375000000
     0.166666666  0.833333333  0.625000000
     0.333333333  0.666666666  0.375000000
     0.666666666  0.333333333  0.625000000
     0.666666666  0.333333333  0.125000000
     0.333333333  0.666666666  0.875000000
     0.500000000  0.500000000  0.000000000
     0.500000000  0.000000000  0.000000000
     1.000000000  0.500000000  0.000000000
     0.500000000  0.500000000  0.250000000
     0.500000000  0.500000000  0.750000000
     0.500000000  0.000000000  0.250000000
     0.500000000  0.000000000  0.750000000
     1.000000000  0.500000000  0.250000000
     1.000000000  0.500000000  0.750000000
     0.000000000  0.000000000  0.000000000
     0.000000000  0.000000000  0.250000000
     0.000000000  0.000000000  0.750000000
     0.500000000  0.500000000  0.500000000
     0.500000000  0.000000000  0.500000000
     1.000000000  0.500000000  0.500000000
     0.000000000  0.000000000  0.500000000

  ion indices of the primitive-cell ions
   primitive index   ion index
                 1           1
                 2           2
                 3           3
                 4           4
                 5           5
                 6           6
                 7           7
                 8           8
                 9           9
                10          10
                11          11
                12          12
                13          13
                14          14
                15          15
                16          16
                17          17
                18          18
                19          19
                20          20
                21          21
                22          22
                23          23
                24          24
                25          25
                26          26
                27          27
                28          28
                29          29
                30          30
                31          31
                32          32
                33          33
                34          34
                35          35
                36          36
                37          37
                38          38
                39          39
                40          40
                41          41
                42          42
                43          43
                44          44
                45          45
                46          46
                47          47
                48          48

----------------------------------------------------------------------------------------

 
 
 KPOINTS: Auto                                    

Automatic generation of k-mesh.
Space group operators:
 irot       det(A)        alpha          n_x          n_y          n_z        tau_x        tau_y        tau_z
    1     1.000000     0.000000     1.000000     0.000000     0.000000     0.000000     0.000000     0.000000
    2    -1.000000     0.000000     1.000000     0.000000     0.000000     0.000000     0.000000     0.000000
    3     1.000000   120.000000     0.000000     0.000000    -1.000000     0.000000     0.000000     0.000000
    4    -1.000000   120.000000     0.000000     0.000000    -1.000000     0.000000     0.000000     0.000000
    5     1.000000   120.000000     0.000000     0.000000     1.000000     0.000000     0.000000     0.000000
    6    -1.000000   120.000000     0.000000     0.000000     1.000000     0.000000     0.000000     0.000000
    7     1.000000   180.000000     1.000000     0.000000     0.000000     0.000000     0.000000     0.000000
    8    -1.000000   180.000000     1.000000     0.000000     0.000000     0.000000     0.000000     0.000000
    9     1.000000   180.000000     0.500000    -0.866025     0.000000     0.000000     0.000000     0.000000
   10    -1.000000   180.000000     0.500000    -0.866025     0.000000     0.000000     0.000000     0.000000
   11     1.000000   180.000000    -0.500000    -0.866025     0.000000     0.000000     0.000000     0.000000
   12    -1.000000   180.000000    -0.500000    -0.866025     0.000000     0.000000     0.000000     0.000000
 
 Subroutine IBZKPT returns following result:
 ===========================================
 
 Found     69 irreducible k-points:
 
 Following reciprocal coordinates:
            Coordinates               Weight
  0.000000  0.000000  0.000000      1.000000
  0.111111  0.000000  0.000000      6.000000
  0.222222  0.000000  0.000000      6.000000
  0.333333  0.000000  0.000000      6.000000
  0.444444  0.000000  0.000000      6.000000
  0.111111  0.111111  0.000000      6.000000
  0.222222  0.111111  0.000000     12.000000
  0.333333  0.111111  0.000000     12.000000
  0.444444  0.111111  0.000000      6.000000
  0.222222  0.222222  0.000000      6.000000
  0.333333  0.222222  0.000000     12.000000
  0.333333  0.333333  0.000000      2.000000
  0.000000  0.000000  0.142857      2.000000
  0.111111  0.000000  0.142857      6.000000
  0.111111 -0.111111  0.142857      6.000000
  0.222222  0.000000  0.142857      6.000000
  0.222222 -0.222222  0.142857      6.000000
  0.333333  0.000000  0.142857      6.000000
  0.333333 -0.333333  0.142857      6.000000
  0.444444  0.000000  0.142857      6.000000
  0.444444 -0.444444  0.142857      6.000000
  0.111111  0.111111  0.142857     12.000000
  0.222222  0.111111  0.142857     12.000000
  0.333333 -0.222222  0.142857     12.000000
  0.333333  0.111111  0.142857     12.000000
  0.444444 -0.333333  0.142857     12.000000
  0.444444  0.111111  0.142857     12.000000
  0.222222  0.222222  0.142857     12.000000
  0.333333  0.222222  0.142857     12.000000
 -0.444444 -0.333333  0.142857     12.000000
  0.333333  0.333333  0.142857      4.000000
  0.000000  0.000000  0.285714      2.000000
  0.111111  0.000000  0.285714      6.000000
  0.111111 -0.111111  0.285714      6.000000
  0.222222  0.000000  0.285714      6.000000
  0.222222 -0.222222  0.285714      6.000000
  0.333333  0.000000  0.285714      6.000000
  0.333333 -0.333333  0.285714      6.000000
  0.444444  0.000000  0.285714      6.000000
  0.444444 -0.444444  0.285714      6.000000
  0.111111  0.111111  0.285714     12.000000
  0.222222  0.111111  0.285714     12.000000
  0.333333 -0.222222  0.285714     12.000000
  0.333333  0.111111  0.285714     12.000000
  0.444444 -0.333333  0.285714     12.000000
  0.444444  0.111111  0.285714     12.000000
  0.222222  0.222222  0.285714     12.000000
  0.333333  0.222222  0.285714     12.000000
 -0.444444 -0.333333  0.285714     12.000000
  0.333333  0.333333  0.285714      4.000000
  0.000000  0.000000  0.428571      2.000000
  0.111111  0.000000  0.428571      6.000000
  0.111111 -0.111111  0.428571      6.000000
  0.222222  0.000000  0.428571      6.000000
  0.222222 -0.222222  0.428571      6.000000
  0.333333  0.000000  0.428571      6.000000
  0.333333 -0.333333  0.428571      6.000000
  0.444444  0.000000  0.428571      6.000000
  0.444444 -0.444444  0.428571      6.000000
  0.111111  0.111111  0.428571     12.000000
  0.222222  0.111111  0.428571     12.000000
  0.333333 -0.222222  0.428571     12.000000
  0.333333  0.111111  0.428571     12.000000
  0.444444 -0.333333  0.428571     12.000000
  0.444444  0.111111  0.428571     12.000000
  0.222222  0.222222  0.428571     12.000000
  0.333333  0.222222  0.428571     12.000000
 -0.444444 -0.333333  0.428571     12.000000
  0.333333  0.333333  0.428571      4.000000
 
 Following cartesian coordinates:
            Coordinates               Weight
  0.000000  0.000000  0.000000      1.000000
  0.013595  0.007849  0.000000      6.000000
  0.027189  0.015698  0.000000      6.000000
  0.040784  0.023547  0.000000      6.000000
  0.054379  0.031396  0.000000      6.000000
  0.013595  0.023547  0.000000      6.000000
  0.027189  0.031396  0.000000     12.000000
  0.040784  0.039245  0.000000     12.000000
  0.054379  0.047093  0.000000      6.000000
  0.027189  0.047093  0.000000      6.000000
  0.040784  0.054942  0.000000     12.000000
  0.040784  0.070640  0.000000      2.000000
  0.000000  0.000000  0.013602      2.000000
  0.013595  0.007849  0.013602      6.000000
  0.013595 -0.007849  0.013602      6.000000
  0.027189  0.015698  0.013602      6.000000
  0.027189 -0.015698  0.013602      6.000000
  0.040784  0.023547  0.013602      6.000000
  0.040784 -0.023547  0.013602      6.000000
  0.054379  0.031396  0.013602      6.000000
  0.054379 -0.031396  0.013602      6.000000
  0.013595  0.023547  0.013602     12.000000
  0.027189  0.031396  0.013602     12.000000
  0.040784 -0.007849  0.013602     12.000000
  0.040784  0.039245  0.013602     12.000000
  0.054379 -0.015698  0.013602     12.000000
  0.054379  0.047093  0.013602     12.000000
  0.027189  0.047093  0.013602     12.000000
  0.040784  0.054942  0.013602     12.000000
 -0.054379 -0.078489  0.013602     12.000000
  0.040784  0.070640  0.013602      4.000000
  0.000000  0.000000  0.027204      2.000000
  0.013595  0.007849  0.027204      6.000000
  0.013595 -0.007849  0.027204      6.000000
  0.027189  0.015698  0.027204      6.000000
  0.027189 -0.015698  0.027204      6.000000
  0.040784  0.023547  0.027204      6.000000
  0.040784 -0.023547  0.027204      6.000000
  0.054379  0.031396  0.027204      6.000000
  0.054379 -0.031396  0.027204      6.000000
  0.013595  0.023547  0.027204     12.000000
  0.027189  0.031396  0.027204     12.000000
  0.040784 -0.007849  0.027204     12.000000
  0.040784  0.039245  0.027204     12.000000
  0.054379 -0.015698  0.027204     12.000000
  0.054379  0.047093  0.027204     12.000000
  0.027189  0.047093  0.027204     12.000000
  0.040784  0.054942  0.027204     12.000000
 -0.054379 -0.078489  0.027204     12.000000
  0.040784  0.070640  0.027204      4.000000
  0.000000  0.000000  0.040805      2.000000
  0.013595  0.007849  0.040805      6.000000
  0.013595 -0.007849  0.040805      6.000000
  0.027189  0.015698  0.040805      6.000000
  0.027189 -0.015698  0.040805      6.000000
  0.040784  0.023547  0.040805      6.000000
  0.040784 -0.023547  0.040805      6.000000
  0.054379  0.031396  0.040805      6.000000
  0.054379 -0.031396  0.040805      6.000000
  0.013595  0.023547  0.040805     12.000000
  0.027189  0.031396  0.040805     12.000000
  0.040784 -0.007849  0.040805     12.000000
  0.040784  0.039245  0.040805     12.000000
  0.054379 -0.015698  0.040805     12.000000
  0.054379  0.047093  0.040805     12.000000
  0.027189  0.047093  0.040805     12.000000
  0.040784  0.054942  0.040805     12.000000
 -0.054379 -0.078489  0.040805     12.000000
  0.040784  0.070640  0.040805      4.000000
 


--------------------------------------------------------------------------------------------------------




 Dimension of arrays:
   k-points           NKPTS =     69   k-points in BZ     NKDIM =     69   number of bands    NBANDS=    360
   number of dos      NEDOS =    301   number of ions     NIONS =     48
   non local maximal  LDIM  =      6   non local SUM 2l+1 LMDIM =     18
   total plane-waves  NPLWV = 288000
   max r-space proj   IRMAX =      1   max aug-charges    IRDMAX=  25201
   dimension x,y,z NGX =    60 NGY =   60 NGZ =   80
   dimension x,y,z NGXF=   120 NGYF=  120 NGZF=  160
   support grid    NGXF=   120 NGYF=  120 NGZF=  160
   ions per type =              16  16  15   1
   NGX,Y,Z   is equivalent  to a cutoff of  12.08, 12.08, 12.54 a.u.
   NGXF,Y,Z  is equivalent  to a cutoff of  24.17, 24.17, 25.08 a.u.

 SYSTEM =  MnFeNiGe_mag_hex-scf                    
 POSCAR =  MnFeNiGe_hex                            

 Startparameter for this run:
   NWRITE =      2    write-flag & timer
   PREC   = accura    normal or accurate (medium, high low for compatibility)
   ISTART =      0    job   : 0-new  1-cont  2-samecut
   ICHARG =      2    charge: 1-file 2-atom 10-const
   ISPIN  =      2    spin polarized calculation?
   LNONCOLLINEAR =      F non collinear calculations
   LSORBIT =      F    spin-orbit coupling
   INIWAV =      1    electr: 0-lowe 1-rand  2-diag
   LASPH  =      F    aspherical Exc in radial PAW
   METAGGA=      F    non-selfconsistent MetaGGA calc.

 Electronic Relaxation 1
   ENCUT  =  450.0 eV  33.07 Ry    5.75 a.u.  14.28 14.28 18.35*2*pi/ulx,y,z
   ENINI  =  450.0     initial cutoff
   ENAUG  =  544.6 eV  augmentation charge cutoff
   NELM   =     60;   NELMIN=  5; NELMDL= -5     # of ELM steps 
   EDIFF  = 0.1E-05   stopping-criterion for ELM
   LREAL  =      F    real-space projection
   NLSPLINE    = F    spline interpolate recip. space projectors
   LCOMPAT=      F    compatible to vasp.4.4
   GGA_COMPAT  = T    GGA compatible to vasp.4.4-vasp.4.6
   LMAXPAW     = -100 max onsite density
   LMAXMIX     =    2 max onsite mixed and CHGCAR
   VOSKOWN=      0    Vosko Wilk Nusair interpolation
   ROPT   =    0.00000   0.00000   0.00000   0.00000
 Ionic relaxation
   EDIFFG = 0.1E-04   stopping-criterion for IOM
   NSW    =      0    number of steps for IOM
   NBLOCK =      1;   KBLOCK =      1    inner block; outer block 
   IBRION =     -1    ionic relax: 0-MD 1-quasi-New 2-CG
   NFREE  =      0    steps in history (QN), initial steepest desc. (CG)
   ISIF   =      6    stress and relaxation
   IWAVPR =     10    prediction:  0-non 1-charg 2-wave 3-comb
   ISYM   =      2    0-nonsym 1-usesym 2-fastsym
   LCORR  =      T    Harris-Foulkes like correction to forces

   POTIM  = 0.5000    time-step for ionic-motion
   TEIN   =    0.0    initial temperature
   TEBEG  =    0.0;   TEEND  =   0.0 temperature during run
   SMASS  =  -3.00    Nose mass-parameter (am)
   estimated Nose-frequenzy (Omega)   =  0.10E-29 period in steps = 0.13E+47 mass=  -0.156E-26a.u.
   SCALEE = 1.0000    scale energy and forces
   NPACO  =    256;   APACO  = 16.0  distance and # of slots for P.C.
   PSTRESS=    0.0 pullay stress

  Mass of Ions in am
   POMASS =  58.69 72.61 54.94 55.85
  Ionic Valenz
   ZVAL   =  10.00  4.00  7.00  8.00
  Atomic Wigner-Seitz radii
   RWIGS  =  -1.00 -1.00 -1.00 -1.00
  virtual crystal weights 
   VCA    =   1.00  1.00  1.00  1.00
   NELECT =     337.0000    total number of electrons
   NUPDOWN=      -1.0000    fix difference up-down

 DOS related values:
   EMIN   =  10.00;   EMAX   =-10.00  energy-range for DOS
   EFERMI =   0.00
   ISMEAR =     1;   SIGMA  =   0.20  broadening in eV -4-tet -1-fermi 0-gaus

 Electronic relaxation 2 (details)
   IALGO  =     38    algorithm
   LDIAG  =      T    sub-space diagonalisation (order eigenvalues)
   LSUBROT=      F    optimize rotation matrix (better conditioning)
   TURBO    =      0    0=normal 1=particle mesh
   IRESTART =      0    0=no restart 2=restart with 2 vectors
   NREBOOT  =      0    no. of reboots
   NMIN     =      0    reboot dimension
   EREF     =   0.00    reference energy to select bands
   IMIX   =      4    mixing-type and parameters
     AMIX     =   0.40;   BMIX     =  1.00
     AMIX_MAG =   1.60;   BMIX_MAG =  1.00
     AMIN     =   0.10
     WC   =   100.;   INIMIX=   1;  MIXPRE=   1;  MAXMIX= -45

 Intra band minimization:
   WEIMIN = 0.0000     energy-eigenvalue tresh-hold
   EBREAK =  0.69E-09  absolut break condition
   DEPER  =   0.30     relativ break condition  

   TIME   =   0.40     timestep for ELM

  volume/ion in A,a.u.               =      13.04        88.01
  Fermi-wavevector in a.u.,A,eV,Ry     =   1.331760  2.516662 24.131097  1.773586
  Thomas-Fermi vector in A             =   2.460747
 
 Write flags
   LWAVE        =      F    write WAVECAR
   LDOWNSAMPLE  =      F    k-point downsampling of WAVECAR
   LCHARG       =      T    write CHGCAR
   LVTOT        =      F    write LOCPOT, total local potential
   LVHAR        =      F    write LOCPOT, Hartree potential only
   LELF         =      F    write electronic localiz. function (ELF)
   LORBIT       =     11    0 simple, 1 ext, 2 COOP (PROOUT), +10 PAW based schemes


 Dipole corrections
   LMONO  =      F    monopole corrections only (constant potential shift)
   LDIPOL =      F    correct potential (dipole corrections)
   IDIPOL =      0    1-x, 2-y, 3-z, 4-all directions 
   EPSILON=  1.0000000 bulk dielectric constant

 Exchange correlation treatment:
   GGA     =    --    GGA type
   LEXCH   =     8    internal setting for exchange type
   VOSKOWN=      0    Vosko Wilk Nusair interpolation
   LHFCALC =     F    Hartree Fock is set to
   LHFONE  =     F    Hartree Fock one center treatment
   AEXX    =    0.0000 exact exchange contribution

 Linear response parameters
   LEPSILON=     F    determine dielectric tensor
   LRPA    =     F    only Hartree local field effects (RPA)
   LNABLA  =     F    use nabla operator in PAW spheres
   LVEL    =     F    velocity operator in full k-point grid
   LINTERFAST=   F  fast interpolation
   KINTER  =     0    interpolate to denser k-point grid
   CSHIFT  =0.1000    complex shift for real part using Kramers Kronig
   OMEGAMAX=  -1.0    maximum frequency
   DEG_THRESHOLD= 0.2000000E-02 threshold for treating states as degnerate
   RTIME   =   -0.100 relaxation time in fs
  (WPLASMAI=    0.000 imaginary part of plasma frequency in eV, 0.658/RTIME)
   DFIELD  = 0.0000000 0.0000000 0.0000000 field for delta impulse in time
 
 Orbital magnetization related:
   ORBITALMAG=     F  switch on orbital magnetization
   LCHIMAG   =     F  perturbation theory with respect to B field
   DQ        =  0.001000  dq finite difference perturbation B field
   LLRAUG    =     F  two centre corrections for induced B field



--------------------------------------------------------------------------------------------------------


 Static calculation
 charge density and potential will be updated during run
 spin polarized calculation
 Variant of blocked Davidson
 Davidson routine will perform the subspace rotation
 perform sub-space diagonalisation
    after iterative eigenvector-optimisation
 modified Broyden-mixing scheme, WC =      100.0
 initial mixing is a Kerker type mixing with AMIX =  0.4000 and BMIX =      1.0000
 Hartree-type preconditioning will be used
 using additional bands          191
 reciprocal scheme for non local part
 use partial core corrections
 calculate Harris-corrections to forces 
   (improved forces if not selfconsistent)
 use gradient corrections 
 use of overlap-Matrix (Vanderbilt PP)
 Methfessel and Paxton  Order N= 1 SIGMA  =   0.20


--------------------------------------------------------------------------------------------------------


  energy-cutoff  :      450.00
  volume of cell :      626.00
      direct lattice vectors                 reciprocal lattice vectors
     8.254851008  0.000000000  0.000000000     0.121140890  0.069940726  0.000000000
    -4.127425504  7.148910678  0.000000000     0.000000000  0.139881451  0.000000000
     0.000000000  0.000000000 10.607842090     0.000000000  0.000000000  0.094269880

  length of vectors
     8.254851008  8.254851008 10.607842090     0.139881451  0.139881451  0.094269880


 
 k-points in units of 2pi/SCALE and weight: Auto                                    
   0.00000000  0.00000000  0.00000000       0.002
   0.01359470  0.00784890  0.00000000       0.011
   0.02718940  0.01569781  0.00000000       0.011
   0.04078410  0.02354671  0.00000000       0.011
   0.05437880  0.03139561  0.00000000       0.011
   0.01359470  0.02354671  0.00000000       0.011
   0.02718940  0.03139561  0.00000000       0.021
   0.04078410  0.03924452  0.00000000       0.021
   0.05437880  0.04709342  0.00000000       0.011
   0.02718940  0.04709342  0.00000000       0.011
   0.04078410  0.05494233  0.00000000       0.021
   0.04078410  0.07064013  0.00000000       0.004
   0.00000000  0.00000000  0.01360180       0.004
   0.01359470  0.00784890  0.01360180       0.011
   0.01359470 -0.00784890  0.01360180       0.011
   0.02718940  0.01569781  0.01360180       0.011
   0.02718940 -0.01569781  0.01360180       0.011
   0.04078410  0.02354671  0.01360180       0.011
   0.04078410 -0.02354671  0.01360180       0.011
   0.05437880  0.03139561  0.01360180       0.011
   0.05437880 -0.03139561  0.01360180       0.011
   0.01359470  0.02354671  0.01360180       0.021
   0.02718940  0.03139561  0.01360180       0.021
   0.04078410 -0.00784890  0.01360180       0.021
   0.04078410  0.03924452  0.01360180       0.021
   0.05437880 -0.01569781  0.01360180       0.021
   0.05437880  0.04709342  0.01360180       0.021
   0.02718940  0.04709342  0.01360180       0.021
   0.04078410  0.05494233  0.01360180       0.021
  -0.05437880 -0.07848904  0.01360180       0.021
   0.04078410  0.07064013  0.01360180       0.007
   0.00000000  0.00000000  0.02720359       0.004
   0.01359470  0.00784890  0.02720359       0.011
   0.01359470 -0.00784890  0.02720359       0.011
   0.02718940  0.01569781  0.02720359       0.011
   0.02718940 -0.01569781  0.02720359       0.011
   0.04078410  0.02354671  0.02720359       0.011
   0.04078410 -0.02354671  0.02720359       0.011
   0.05437880  0.03139561  0.02720359       0.011
   0.05437880 -0.03139561  0.02720359       0.011
   0.01359470  0.02354671  0.02720359       0.021
   0.02718940  0.03139561  0.02720359       0.021
   0.04078410 -0.00784890  0.02720359       0.021
   0.04078410  0.03924452  0.02720359       0.021
   0.05437880 -0.01569781  0.02720359       0.021
   0.05437880  0.04709342  0.02720359       0.021
   0.02718940  0.04709342  0.02720359       0.021
   0.04078410  0.05494233  0.02720359       0.021
  -0.05437880 -0.07848904  0.02720359       0.021
   0.04078410  0.07064013  0.02720359       0.007
   0.00000000  0.00000000  0.04080539       0.004
   0.01359470  0.00784890  0.04080539       0.011
   0.01359470 -0.00784890  0.04080539       0.011
   0.02718940  0.01569781  0.04080539       0.011
   0.02718940 -0.01569781  0.04080539       0.011
   0.04078410  0.02354671  0.04080539       0.011
   0.04078410 -0.02354671  0.04080539       0.011
   0.05437880  0.03139561  0.04080539       0.011
   0.05437880 -0.03139561  0.04080539       0.011
   0.01359470  0.02354671  0.04080539       0.021
   0.02718940  0.03139561  0.04080539       0.021
   0.04078410 -0.00784890  0.04080539       0.021
   0.04078410  0.03924452  0.04080539       0.021
   0.05437880 -0.01569781  0.04080539       0.021
   0.05437880  0.04709342  0.04080539       0.021
   0.02718940  0.04709342  0.04080539       0.021
   0.04078410  0.05494233  0.04080539       0.021
  -0.05437880 -0.07848904  0.04080539       0.021
   0.04078410  0.07064013  0.04080539       0.007
 
 k-points in reciprocal lattice and weights: Auto                                    
   0.00000000  0.00000000  0.00000000       0.002
   0.11111111  0.00000000  0.00000000       0.011
   0.22222222  0.00000000  0.00000000       0.011
   0.33333333  0.00000000  0.00000000       0.011
   0.44444444  0.00000000  0.00000000       0.011
   0.11111111  0.11111111  0.00000000       0.011
   0.22222222  0.11111111  0.00000000       0.021
   0.33333333  0.11111111  0.00000000       0.021
   0.44444444  0.11111111  0.00000000       0.011
   0.22222222  0.22222222  0.00000000       0.011
   0.33333333  0.22222222  0.00000000       0.021
   0.33333333  0.33333333  0.00000000       0.004
   0.00000000  0.00000000  0.14285714       0.004
   0.11111111  0.00000000  0.14285714       0.011
   0.11111111 -0.11111111  0.14285714       0.011
   0.22222222  0.00000000  0.14285714       0.011
   0.22222222 -0.22222222  0.14285714       0.011
   0.33333333  0.00000000  0.14285714       0.011
   0.33333333 -0.33333333  0.14285714       0.011
   0.44444444  0.00000000  0.14285714       0.011
   0.44444444 -0.44444444  0.14285714       0.011
   0.11111111  0.11111111  0.14285714       0.021
   0.22222222  0.11111111  0.14285714       0.021
   0.33333333 -0.22222222  0.14285714       0.021
   0.33333333  0.11111111  0.14285714       0.021
   0.44444444 -0.33333333  0.14285714       0.021
   0.44444444  0.11111111  0.14285714       0.021
   0.22222222  0.22222222  0.14285714       0.021
   0.33333333  0.22222222  0.14285714       0.021
  -0.44444444 -0.33333333  0.14285714       0.021
   0.33333333  0.33333333  0.14285714       0.007
   0.00000000  0.00000000  0.28571429       0.004
   0.11111111  0.00000000  0.28571429       0.011
   0.11111111 -0.11111111  0.28571429       0.011
   0.22222222  0.00000000  0.28571429       0.011
   0.22222222 -0.22222222  0.28571429       0.011
   0.33333333  0.00000000  0.28571429       0.011
   0.33333333 -0.33333333  0.28571429       0.011
   0.44444444  0.00000000  0.28571429       0.011
   0.44444444 -0.44444444  0.28571429       0.011
   0.11111111  0.11111111  0.28571429       0.021
   0.22222222  0.11111111  0.28571429       0.021
   0.33333333 -0.22222222  0.28571429       0.021
   0.33333333  0.11111111  0.28571429       0.021
   0.44444444 -0.33333333  0.28571429       0.021
   0.44444444  0.11111111  0.28571429       0.021
   0.22222222  0.22222222  0.28571429       0.021
   0.33333333  0.22222222  0.28571429       0.021
  -0.44444444 -0.33333333  0.28571429       0.021
   0.33333333  0.33333333  0.28571429       0.007
   0.00000000  0.00000000  0.42857143       0.004
   0.11111111  0.00000000  0.42857143       0.011
   0.11111111 -0.11111111  0.42857143       0.011
   0.22222222  0.00000000  0.42857143       0.011
   0.22222222 -0.22222222  0.42857143       0.011
   0.33333333  0.00000000  0.42857143       0.011
   0.33333333 -0.33333333  0.42857143       0.011
   0.44444444  0.00000000  0.42857143       0.011
   0.44444444 -0.44444444  0.42857143       0.011
   0.11111111  0.11111111  0.42857143       0.021
   0.22222222  0.11111111  0.42857143       0.021
   0.33333333 -0.22222222  0.42857143       0.021
   0.33333333  0.11111111  0.42857143       0.021
   0.44444444 -0.33333333  0.42857143       0.021
   0.44444444  0.11111111  0.42857143       0.021
   0.22222222  0.22222222  0.42857143       0.021
   0.33333333  0.22222222  0.42857143       0.021
  -0.44444444 -0.33333333  0.42857143       0.021
   0.33333333  0.33333333  0.42857143       0.007
 
 position of ions in fractional coordinates (direct lattice) 
   0.66666667  0.83333333  0.37500000
   0.33333333  0.16666667  0.62500000
   0.16666667  0.83333333  0.37500000
   0.83333333  0.16666667  0.62500000
   0.16666667  0.33333333  0.37500000
   0.83333333  0.66666667  0.62500000
   0.83333333  0.66666667  0.12500000
   0.16666667  0.33333333  0.87500000
   0.33333333  0.16666667  0.12500000
   0.66666667  0.83333333  0.87500000
   0.83333333  0.16666667  0.12500000
   0.16666667  0.83333333  0.87500000
   0.33333333  0.66666667  0.12500000
   0.66666667  0.33333333  0.87500000
   0.66666667  0.33333333  0.37500000
   0.33333333  0.66666667  0.62500000
   0.66666667  0.83333333  0.12500000
   0.33333331  0.16666667  0.87500000
   0.16666667  0.83333333  0.12500000
   0.83333333  0.16666667  0.87500000
   0.16666667  0.33333333  0.12500000
   0.83333333  0.66666667  0.87500000
   0.83333333  0.66666667  0.37500000
   0.16666667  0.33333333  0.62500000
   0.33333333  0.16666667  0.37500000
   0.66666667  0.83333333  0.62500000
   0.83333333  0.16666667  0.37500000
   0.16666667  0.83333333  0.62500000
   0.33333333  0.66666667  0.37500000
   0.66666667  0.33333333  0.62500000
   0.66666667  0.33333333  0.12500000
   0.33333333  0.66666667  0.87500000
   0.50000000  0.50000000  0.00000000
   0.50000000  0.00000000  0.00000000
   0.00000000  0.50000000  0.00000000
   0.50000000  0.50000000  0.25000000
   0.50000000  0.50000000  0.75000000
   0.50000000  0.00000000  0.25000000
   0.50000000  0.00000000  0.75000000
   0.00000000  0.50000000  0.25000000
   0.00000000  0.50000000  0.75000000
   0.00000000  0.00000000  0.00000000
   0.00000000  0.00000000  0.25000000
   0.00000000  0.00000000  0.75000000
   0.50000000  0.50000000  0.50000000
   0.50000000  0.00000000  0.50000000
   0.00000000  0.50000000  0.50000000
   0.00000000  0.00000000  0.50000000
 
 position of ions in cartesian coordinates  (Angst):
   2.06371275  5.95742556  3.97794078
   2.06371275  1.19148511  6.62990131
  -2.06371276  5.95742556  3.97794078
   6.19113826  1.19148511  6.62990131
  -0.00000000  2.38297022  3.97794078
   4.12742550  4.76594045  6.62990131
   4.12742550  4.76594045  1.32598026
  -0.00000000  2.38297022  9.28186183
   2.06371275  1.19148511  1.32598026
   2.06371275  5.95742556  9.28186183
   6.19113826  1.19148511  1.32598026
  -2.06371276  5.95742556  9.28186183
   0.00000000  4.76594045  1.32598026
   4.12742550  2.38297022  9.28186183
   4.12742550  2.38297022  3.97794078
   0.00000000  4.76594045  6.62990131
   2.06371275  5.95742556  1.32598026
   2.06371259  1.19148511  9.28186183
  -2.06371276  5.95742556  1.32598026
   6.19113826  1.19148511  9.28186183
  -0.00000000  2.38297022  1.32598026
   4.12742550  4.76594045  9.28186183
   4.12742550  4.76594045  3.97794078
  -0.00000000  2.38297022  6.62990131
   2.06371275  1.19148511  3.97794078
   2.06371275  5.95742556  6.62990131
   6.19113826  1.19148511  3.97794078
  -2.06371276  5.95742556  6.62990131
   0.00000000  4.76594045  3.97794078
   4.12742550  2.38297022  6.62990131
   4.12742550  2.38297022  1.32598026
   0.00000000  4.76594045  9.28186183
   2.06371275  3.57445534  0.00000000
   4.12742550  0.00000000  0.00000000
  -2.06371275  3.57445534  0.00000000
   2.06371275  3.57445534  2.65196052
   2.06371275  3.57445534  7.95588157
   4.12742550  0.00000000  2.65196052
   4.12742550  0.00000000  7.95588157
  -2.06371275  3.57445534  2.65196052
  -2.06371275  3.57445534  7.95588157
   0.00000000  0.00000000  0.00000000
   0.00000000  0.00000000  2.65196052
   0.00000000  0.00000000  7.95588157
   2.06371275  3.57445534  5.30392105
   4.12742550  0.00000000  5.30392105
  -2.06371275  3.57445534  5.30392105
   0.00000000  0.00000000  5.30392105
 


--------------------------------------------------------------------------------------------------------


 k-point   1 :   0.0000 0.0000 0.0000  plane waves:   13591
 k-point   2 :   0.1111 0.0000 0.0000  plane waves:   13577
 k-point   3 :   0.2222 0.0000 0.0000  plane waves:   13563
 k-point   4 :   0.3333 0.0000 0.0000  plane waves:   13591
 k-point   5 :   0.4444 0.0000 0.0000  plane waves:   13562
 k-point   6 :   0.1111 0.1111 0.0000  plane waves:   13567
 k-point   7 :   0.2222 0.1111 0.0000  plane waves:   13586
 k-point   8 :   0.3333 0.1111 0.0000  plane waves:   13571
 k-point   9 :   0.4444 0.1111 0.0000  plane waves:   13592
 k-point  10 :   0.2222 0.2222 0.0000  plane waves:   13562
 k-point  11 :   0.3333 0.2222 0.0000  plane waves:   13559
 k-point  12 :   0.3333 0.3333 0.0000  plane waves:   13572
 k-point  13 :   0.0000 0.0000 0.1429  plane waves:   13567
 k-point  14 :   0.1111 0.0000 0.1429  plane waves:   13578
 k-point  15 :   0.1111-0.1111 0.1429  plane waves:   13578
 k-point  16 :   0.2222 0.0000 0.1429  plane waves:   13571
 k-point  17 :   0.2222-0.2222 0.1429  plane waves:   13571
 k-point  18 :   0.3333 0.0000 0.1429  plane waves:   13582
 k-point  19 :   0.3333-0.3333 0.1429  plane waves:   13582
 k-point  20 :   0.4444 0.0000 0.1429  plane waves:   13573
 k-point  21 :   0.4444-0.4444 0.1429  plane waves:   13573
 k-point  22 :   0.1111 0.1111 0.1429  plane waves:   13573
 k-point  23 :   0.2222 0.1111 0.1429  plane waves:   13572
 k-point  24 :   0.3333-0.2222 0.1429  plane waves:   13572
 k-point  25 :   0.3333 0.1111 0.1429  plane waves:   13563
 k-point  26 :   0.4444-0.3333 0.1429  plane waves:   13563
 k-point  27 :   0.4444 0.1111 0.1429  plane waves:   13580
 k-point  28 :   0.2222 0.2222 0.1429  plane waves:   13555
 k-point  29 :   0.3333 0.2222 0.1429  plane waves:   13578
 k-point  30 :  -0.4444-0.3333 0.1429  plane waves:   13578
 k-point  31 :   0.3333 0.3333 0.1429  plane waves:   13563
 k-point  32 :   0.0000 0.0000 0.2857  plane waves:   13561
 k-point  33 :   0.1111 0.0000 0.2857  plane waves:   13565
 k-point  34 :   0.1111-0.1111 0.2857  plane waves:   13565
 k-point  35 :   0.2222 0.0000 0.2857  plane waves:   13572
 k-point  36 :   0.2222-0.2222 0.2857  plane waves:   13572
 k-point  37 :   0.3333 0.0000 0.2857  plane waves:   13562
 k-point  38 :   0.3333-0.3333 0.2857  plane waves:   13562
 k-point  39 :   0.4444 0.0000 0.2857  plane waves:   13568
 k-point  40 :   0.4444-0.4444 0.2857  plane waves:   13568
 k-point  41 :   0.1111 0.1111 0.2857  plane waves:   13575
 k-point  42 :   0.2222 0.1111 0.2857  plane waves:   13567
 k-point  43 :   0.3333-0.2222 0.2857  plane waves:   13567
 k-point  44 :   0.3333 0.1111 0.2857  plane waves:   13568
 k-point  45 :   0.4444-0.3333 0.2857  plane waves:   13568
 k-point  46 :   0.4444 0.1111 0.2857  plane waves:   13566
 k-point  47 :   0.2222 0.2222 0.2857  plane waves:   13576
 k-point  48 :   0.3333 0.2222 0.2857  plane waves:   13576
 k-point  49 :  -0.4444-0.3333 0.2857  plane waves:   13576
 k-point  50 :   0.3333 0.3333 0.2857  plane waves:   13587
 k-point  51 :   0.0000 0.0000 0.4286  plane waves:   13620
 k-point  52 :   0.1111 0.0000 0.4286  plane waves:   13583
 k-point  53 :   0.1111-0.1111 0.4286  plane waves:   13583
 k-point  54 :   0.2222 0.0000 0.4286  plane waves:   13563
 k-point  55 :   0.2222-0.2222 0.4286  plane waves:   13563
 k-point  56 :   0.3333 0.0000 0.4286  plane waves:   13565
 k-point  57 :   0.3333-0.3333 0.4286  plane waves:   13565
 k-point  58 :   0.4444 0.0000 0.4286  plane waves:   13587
 k-point  59 :   0.4444-0.4444 0.4286  plane waves:   13587
 k-point  60 :   0.1111 0.1111 0.4286  plane waves:   13563
 k-point  61 :   0.2222 0.1111 0.4286  plane waves:   13563
 k-point  62 :   0.3333-0.2222 0.4286  plane waves:   13563
 k-point  63 :   0.3333 0.1111 0.4286  plane waves:   13567
 k-point  64 :   0.4444-0.3333 0.4286  plane waves:   13567
 k-point  65 :   0.4444 0.1111 0.4286  plane waves:   13571
 k-point  66 :   0.2222 0.2222 0.4286  plane waves:   13557
 k-point  67 :   0.3333 0.2222 0.4286  plane waves:   13549
 k-point  68 :  -0.4444-0.3333 0.4286  plane waves:   13549
 k-point  69 :   0.3333 0.3333 0.4286  plane waves:   13554

 maximum and minimum number of plane-waves per node :      2308     2225

 maximum number of plane-waves:     13620
 maximum index in each direction: 
   IXMAX=   14   IYMAX=   14   IZMAX=   18
   IXMIN=  -14   IYMIN=  -14   IZMIN=  -18


 parallel 3D FFT for wavefunctions:
    minimum data exchange during FFTs selected (reduces bandwidth)
 parallel 3D FFT for charge:
    minimum data exchange during FFTs selected (reduces bandwidth)


 total amount of memory used by VASP MPI-rank0   622513. kBytes
=======================================================================

   base      :      30000. kBytes
   nonl-proj :      92691. kBytes
   fftplans  :       4706. kBytes
   grid      :      13171. kBytes
   one-center:        248. kBytes
   wavefun   :     481697. kBytes
 
     INWAV:  cpu time    0.0010: real time    0.0006
 Broyden mixing: mesh for mixing (old mesh)
   NGX = 29   NGY = 29   NGZ = 37
  (NGX  =120   NGY  =120   NGZ  =160)
  gives a total of  31117 points

 initial charge density was supplied:
 charge density of overlapping atoms calculated
 number of electron     337.0000000 magnetization     160.0000000
 keeping initial charge density in first step


--------------------------------------------------------------------------------------------------------


 Maximum index for augmentation-charges         1078 (set IRDMAX)


--------------------------------------------------------------------------------------------------------


 First call to EWALD:  gamma=   0.207
 Maximum number of real-space cells 3x 3x 2
 Maximum number of reciprocal cells 3x 3x 3

    FEWALD:  cpu time    0.0030: real time    0.0169


--------------------------------------- Iteration      1(   1)  ---------------------------------------


    POTLOK:  cpu time    0.2100: real time    0.4991
    SETDIJ:  cpu time    0.0340: real time    0.1571
     EDDAV:  cpu time  352.9113: real time  355.6346
       DOS:  cpu time    0.0440: real time    0.0873
    --------------------------------------------
      LOOP:  cpu time  353.1993: real time  356.3781

 eigenvalue-minimisations  : 99384
 total energy-change (2. order) : 0.2774971E+04  (-0.1091717E+05)
 number of electron     337.0000000 magnetization     160.0000000
 augmentation part      337.0000000 magnetization     160.0000000

 Free energy of the ion-electron system (eV)
  ---------------------------------------------------
  alpha Z        PSCENC =      1534.21937833
  Ewald energy   TEWEN  =    -22280.22661813
  -Hartree energ DENC   =     -6811.76945931
  -exchange      EXHF   =         0.00000000
  -V(xc)+E(xc)   XCENC  =       313.68593556
  PAW double counting   =     23377.83946347   -23998.34197029
  entropy T*S    EENTRO =         0.00214805
  eigenvalues    EBANDS =      4871.33579219
  atomic energy  EATOM  =     25768.22672671
  Solvation  Ediel_sol  =         0.00000000
  ---------------------------------------------------
  free energy    TOTEN  =      2774.97139657 eV

  energy without entropy =     2774.96924852  energy(sigma->0) =     2774.97068055


--------------------------------------------------------------------------------------------------------




--------------------------------------- Iteration      1(   2)  ---------------------------------------


     EDDAV:  cpu time  353.0983: real time  354.6095
       DOS:  cpu time    0.0510: real time    0.0506
    --------------------------------------------
      LOOP:  cpu time  353.1493: real time  354.6601

 eigenvalue-minimisations  : 99360
 total energy-change (2. order) :-0.2613356E+04  (-0.2332276E+04)
 number of electron     337.0000000 magnetization     160.0000000
 augmentation part      337.0000000 magnetization     160.0000000

 Free energy of the ion-electron system (eV)
  ---------------------------------------------------
  alpha Z        PSCENC =      1534.21937833
  Ewald energy   TEWEN  =    -22280.22661813
  -Hartree energ DENC   =     -6811.76945931
  -exchange      EXHF   =         0.00000000
  -V(xc)+E(xc)   XCENC  =       313.68593556
  PAW double counting   =     23377.83946347   -23998.34197029
  entropy T*S    EENTRO =         0.00484558
  eigenvalues    EBANDS =      2257.97707108
  atomic energy  EATOM  =     25768.22672671
  Solvation  Ediel_sol  =         0.00000000
  ---------------------------------------------------
  free energy    TOTEN  =       161.61537299 eV

  energy without entropy =      161.61052742  energy(sigma->0) =      161.61375780


--------------------------------------------------------------------------------------------------------




--------------------------------------- Iteration      1(   3)  ---------------------------------------


     EDDAV:  cpu time  353.7622: real time  355.0593
       DOS:  cpu time    0.0590: real time    0.0586
    --------------------------------------------
      LOOP:  cpu time  353.8212: real time  355.1179

 eigenvalue-minimisations  : 99512
 total energy-change (2. order) :-0.4275877E+03  (-0.3512821E+03)
 number of electron     337.0000000 magnetization     160.0000000
 augmentation part      337.0000000 magnetization     160.0000000

 Free energy of the ion-electron system (eV)
  ---------------------------------------------------
  alpha Z        PSCENC =      1534.21937833
  Ewald energy   TEWEN  =    -22280.22661813
  -Hartree energ DENC   =     -6811.76945931
  -exchange      EXHF   =         0.00000000
  -V(xc)+E(xc)   XCENC  =       313.68593556
  PAW double counting   =     23377.83946347   -23998.34197029
  entropy T*S    EENTRO =         0.02760703
  eigenvalues    EBANDS =      1830.36658373
  atomic energy  EATOM  =     25768.22672671
  Solvation  Ediel_sol  =         0.00000000
  ---------------------------------------------------
  free energy    TOTEN  =      -265.97235290 eV

  energy without entropy =     -265.99995993  energy(sigma->0) =     -265.98155524


--------------------------------------------------------------------------------------------------------




--------------------------------------- Iteration      1(   4)  ---------------------------------------


     EDDAV:  cpu time  414.0930: real time  415.6141
       DOS:  cpu time    0.0610: real time    0.0607
    --------------------------------------------
      LOOP:  cpu time  414.1540: real time  415.6747

 eigenvalue-minimisations  :122088
 total energy-change (2. order) :-0.3065212E+02  (-0.2927620E+02)
 number of electron     337.0000000 magnetization     160.0000000
 augmentation part      337.0000000 magnetization     160.0000000

 Free energy of the ion-electron system (eV)
  ---------------------------------------------------
  alpha Z        PSCENC =      1534.21937833
  Ewald energy   TEWEN  =    -22280.22661813
  -Hartree energ DENC   =     -6811.76945931
  -exchange      EXHF   =         0.00000000
  -V(xc)+E(xc)   XCENC  =       313.68593556
  PAW double counting   =     23377.83946347   -23998.34197029
  entropy T*S    EENTRO =         0.04628387
  eigenvalues    EBANDS =      1799.69578811
  atomic energy  EATOM  =     25768.22672671
  Solvation  Ediel_sol  =         0.00000000
  ---------------------------------------------------
  free energy    TOTEN  =      -296.62447169 eV

  energy without entropy =     -296.67075555  energy(sigma->0) =     -296.63989964


--------------------------------------------------------------------------------------------------------




--------------------------------------- Iteration      1(   5)  ---------------------------------------


     EDDAV:  cpu time  411.1225: real time  412.7267
       DOS:  cpu time    0.0620: real time    0.0614
    CHARGE:  cpu time    6.2331: real time    6.3413
    MIXING:  cpu time    0.0070: real time    0.0769
    --------------------------------------------
      LOOP:  cpu time  417.4245: real time  419.2063

 eigenvalue-minimisations  :121040
 total energy-change (2. order) :-0.7930699E+00  (-0.7911642E+00)
 number of electron     337.0000127 magnetization     127.6939021
 augmentation part      119.7540481 magnetization     102.7063736

 Broyden mixing:
  rms(total) = 0.99199E+01    rms(broyden)= 0.99196E+01
  rms(prec ) = 0.10875E+02
  weight for this iteration     100.00

 Free energy of the ion-electron system (eV)
  ---------------------------------------------------
  alpha Z        PSCENC =      1534.21937833
  Ewald energy   TEWEN  =    -22280.22661813
  -Hartree energ DENC   =     -6811.76945931
  -exchange      EXHF   =         0.00000000
  -V(xc)+E(xc)   XCENC  =       313.68593556
  PAW double counting   =     23377.83946347   -23998.34197029
  entropy T*S    EENTRO =         0.04645413
  eigenvalues    EBANDS =      1798.90254798
  atomic energy  EATOM  =     25768.22672671
  Solvation  Ediel_sol  =         0.00000000
  ---------------------------------------------------
  free energy    TOTEN  =      -297.41754156 eV

  energy without entropy =     -297.46399568  energy(sigma->0) =     -297.43302627


--------------------------------------------------------------------------------------------------------




--------------------------------------- Iteration      1(   6)  ---------------------------------------


    POTLOK:  cpu time    0.1920: real time    0.1977
    SETDIJ:  cpu time    0.0300: real time    0.0303
     EDDAV:  cpu time  425.8033: real time  427.4437
       DOS:  cpu time    0.0620: real time    0.0630
    CHARGE:  cpu time    5.9481: real time    5.9679
    MIXING:  cpu time    0.0080: real time    0.1362
    --------------------------------------------
[...]
   43        0.021   0.018   3.066   3.106
   44        0.021   0.018   3.066   3.106
   45        0.019   0.020   2.973   3.012
   46        0.019   0.020   2.973   3.012
   47        0.019   0.020   2.973   3.012
   48        0.014   0.009   2.406   2.429
--------------------------------------------------
tot         -0.275  -1.693  50.005  48.036
 
    CHARGE:  cpu time    5.9001: real time    5.9215
    FORLOC:  cpu time    0.0280: real time    0.0369
    FORNL :  cpu time  115.0785: real time  115.4985
    STRESS:  cpu time  202.0043: real time  202.7777
    FORCOR:  cpu time    0.2120: real time    0.2411
    FORHAR:  cpu time    0.0450: real time    0.0525
    MIXING:  cpu time    0.0100: real time    0.0099
    OFIELD:  cpu time    0.0000: real time    0.0053

  FORCE on cell =-STRESS in cart. coord.  units (eV):
  Direction    XX          YY          ZZ          XY          YZ          ZX
  --------------------------------------------------------------------------------------
  Alpha Z  1534.21938  1534.21938  1534.21938
  Ewald   -7210.32515 -7210.32515 -7859.66929    -0.00001     0.00000     0.00000
  Hartree  2161.15218  2161.15218  2024.38615    -0.00000     0.00000    -0.00000
  E(xc)   -1651.93256 -1651.93259 -1655.74873    -0.00002    -0.00000     0.00000
  Local    -741.66674  -741.66767   -67.44416    -0.00079    -0.00000     0.00000
  n-local  -241.04604  -243.91899  -279.30248     1.11225    -0.64104    -0.46592
  augment  3303.30970  3303.31037  3373.45495     0.00058     0.00000    -0.00000
  Kinetic  2833.01893  2831.25114  2917.25388     1.39076    -0.38914     0.78946
  Fock        0.00000     0.00000     0.00000     0.00000     0.00000     0.00000
  -------------------------------------------------------------------------------------
  Total     -15.59081   -15.59081   -12.85030     0.00000     0.00000     0.00000
  in kB     -39.90277   -39.90277   -32.88878     0.00000     0.00000     0.00000
  external pressure =      -37.56 kB  Pullay stress =        0.00 kB


 VOLUME and BASIS-vectors are now :
 -----------------------------------------------------------------------------
  energy-cutoff  :      450.00
  volume of cell :      626.00
      direct lattice vectors                 reciprocal lattice vectors
     8.254851008  0.000000000  0.000000000     0.121140890  0.069940726  0.000000000
    -4.127425504  7.148910678  0.000000000     0.000000000  0.139881451  0.000000000
     0.000000000  0.000000000 10.607842090     0.000000000  0.000000000  0.094269880

  length of vectors
     8.254851008  8.254851008 10.607842090     0.139881451  0.139881451  0.094269880


 FORCES acting on ions
    electron-ion (+dipol)            ewald-force                    non-local-force                 convergence-correction
 -----------------------------------------------------------------------------------------------
   0.119E+02 0.686E+01 0.970E+01   -.119E+02 -.685E+01 -.967E+01   0.423E-01 0.244E-01 -.170E-03   -.349E-01 -.201E-01 -.232E-01
   -.119E+02 -.686E+01 -.970E+01   0.119E+02 0.685E+01 0.967E+01   -.423E-01 -.244E-01 0.170E-03   0.349E-01 0.201E-01 0.232E-01
   -.119E+02 0.686E+01 0.970E+01   0.119E+02 -.685E+01 -.967E+01   -.423E-01 0.244E-01 -.170E-03   0.349E-01 -.201E-01 -.232E-01
   0.119E+02 -.686E+01 -.970E+01   -.119E+02 0.685E+01 0.967E+01   0.423E-01 -.244E-01 0.170E-03   -.349E-01 0.201E-01 0.232E-01
   0.537E-06 -.137E+02 0.970E+01   0.103E-05 0.137E+02 -.967E+01   0.195E-17 -.488E-01 -.170E-03   0.103E-07 0.403E-01 -.232E-01
   -.810E-06 0.137E+02 -.970E+01   -.621E-06 -.137E+02 0.967E+01   -.651E-18 0.488E-01 0.170E-03   -.100E-07 -.403E-01 0.232E-01
   -.708E-06 0.175E+01 0.413E+01   -.621E-06 -.176E+01 -.414E+01   -.651E-18 0.270E-01 0.246E-01   -.408E-08 -.105E-02 -.145E-01
   -.107E-05 -.175E+01 -.413E+01   -.874E-05 0.176E+01 0.414E+01   0.217E-18 -.270E-01 -.246E-01   0.404E-08 0.105E-02 0.145E-01
   -.152E+01 -.875E+00 0.413E+01   0.152E+01 0.879E+00 -.414E+01   -.234E-01 -.135E-01 0.246E-01   0.910E-03 0.526E-03 -.145E-01
   0.152E+01 0.875E+00 -.413E+01   -.152E+01 -.879E+00 0.414E+01   0.234E-01 0.135E-01 -.246E-01   -.910E-03 -.526E-03 0.145E-01
   0.152E+01 -.875E+00 0.413E+01   -.152E+01 0.879E+00 -.414E+01   0.234E-01 -.135E-01 0.246E-01   -.910E-03 0.526E-03 -.145E-01
   -.152E+01 0.875E+00 -.413E+01   0.152E+01 -.879E+00 0.414E+01   -.234E-01 0.135E-01 -.246E-01   0.910E-03 -.526E-03 0.145E-01
   -.707E-06 0.244E-06 0.275E+01   -.621E-06 0.205E-05 -.274E+01   0.651E-18 -.434E-18 -.710E-02   0.230E-08 -.314E-07 -.486E-02
   -.107E-05 -.194E-05 -.275E+01   -.874E-05 -.906E-05 0.274E+01   0.651E-18 0.434E-18 0.710E-02   -.233E-08 0.219E-07 0.486E-02
   0.397E-06 -.590E-06 0.343E+01   0.106E-05 -.118E-06 -.344E+01   -.108E-17 0.000E+00 0.488E-01   0.153E-08 0.938E-08 -.623E-02
   -.700E-06 0.240E-06 -.343E+01   -.621E-06 0.205E-05 0.344E+01   -.217E-18 0.000E+00 -.488E-01   -.114E-08 -.294E-07 0.623E-02
   0.610E+00 0.352E+00 0.164E+01   -.609E+00 -.352E+00 -.166E+01   0.107E-01 0.615E-02 0.255E-02   -.160E-02 -.925E-03 -.525E-02
   -.610E+00 -.352E+00 -.164E+01   0.609E+00 0.352E+00 0.166E+01   -.107E-01 -.615E-02 -.255E-02   0.160E-02 0.925E-03 0.525E-02
   -.610E+00 0.352E+00 0.164E+01   0.609E+00 -.352E+00 -.166E+01   -.107E-01 0.615E-02 0.255E-02   0.160E-02 -.925E-03 -.525E-02
   0.610E+00 -.352E+00 -.164E+01   -.609E+00 0.352E+00 0.166E+01   0.107E-01 -.615E-02 -.255E-02   -.160E-02 0.925E-03 0.525E-02
   0.162E-05 -.704E+00 0.164E+01   0.350E-06 0.704E+00 -.166E+01   0.347E-17 -.123E-01 0.255E-02   0.229E-08 0.185E-02 -.525E-02
   -.159E-05 0.704E+00 -.164E+01   -.602E-06 -.704E+00 0.166E+01   0.000E+00 0.123E-01 -.255E-02   -.216E-08 -.185E-02 0.525E-02
   -.156E-05 0.547E+01 0.386E+01   -.414E-06 -.548E+01 -.387E+01   0.347E-17 0.116E+00 0.860E-01   -.690E-08 -.149E-01 -.871E-02
   0.163E-05 -.547E+01 -.386E+01   0.342E-06 0.548E+01 0.387E+01   -.347E-17 -.116E+00 -.860E-01   0.694E-08 0.149E-01 0.871E-02
   -.474E+01 -.273E+01 0.386E+01   0.475E+01 0.274E+01 -.387E+01   -.101E+00 -.581E-01 0.860E-01   0.129E-01 0.745E-02 -.871E-02
   0.474E+01 0.273E+01 -.386E+01   -.475E+01 -.274E+01 0.387E+01   0.101E+00 0.581E-01 -.860E-01   -.129E-01 -.745E-02 0.871E-02
   0.474E+01 -.273E+01 0.386E+01   -.475E+01 0.274E+01 -.387E+01   0.101E+00 -.581E-01 0.860E-01   -.129E-01 0.745E-02 -.871E-02
   -.474E+01 0.273E+01 -.386E+01   0.475E+01 -.274E+01 0.387E+01   -.101E+00 0.581E-01 -.860E-01   0.129E-01 -.745E-02 0.871E-02
   -.155E-05 0.103E-05 0.138E+01   -.414E-06 0.616E-06 -.138E+01   -.173E-17 0.694E-17 0.463E-02   0.305E-09 -.699E-08 -.393E-02
   0.161E-05 -.911E-06 -.138E+01   0.355E-06 -.579E-06 0.138E+01   0.173E-17 -.694E-17 -.463E-02   -.224E-09 0.521E-08 0.393E-02
   0.162E-05 -.911E-06 0.111E+01   0.352E-06 -.580E-06 -.110E+01   0.000E+00 0.173E-17 0.122E-01   -.108E-08 0.570E-08 -.341E-02
   -.159E-05 0.120E-05 -.111E+01   -.602E-06 0.168E-05 0.110E+01   0.173E-17 0.173E-17 -.122E-01   0.121E-08 -.139E-07 0.341E-02
   0.552E-06 0.278E-06 0.179E-10   0.219E-05 -.694E-06 -.160E-12   -.132E-22 0.000E+00 0.000E+00   -.220E-07 -.227E-10 0.588E-13
   -.293E-06 0.766E-06 -.524E-06   -.341E-05 0.254E-05 -.346E-05   0.000E+00 0.000E+00 0.000E+00   0.213E-10 -.127E-07 0.598E-08
   -.275E-08 0.278E-06 -.431E-10   -.148E-05 -.694E-06 -.361E-14   0.662E-23 0.000E+00 0.000E+00   0.216E-07 -.166E-10 0.748E-11
   0.112E-01 -.647E-02 0.343E+01   -.807E-07 -.694E-06 -.343E+01   -.318E-02 0.184E-02 0.181E-01   -.185E-02 0.107E-02 -.767E-02
   -.112E-01 0.647E-02 -.343E+01   0.219E-05 -.694E-06 0.343E+01   0.318E-02 -.184E-02 -.181E-01   0.185E-02 -.107E-02 0.767E-02
   0.150E-06 0.129E-01 0.343E+01   -.468E-06 -.471E-06 -.343E+01   -.163E-18 -.367E-02 0.181E-01   -.183E-08 -.213E-02 -.767E-02
   -.292E-06 -.129E-01 -.343E+01   -.341E-05 0.254E-05 0.343E+01   0.163E-18 0.367E-02 -.181E-01   0.194E-08 0.213E-02 0.767E-02
   -.112E-01 -.647E-02 0.343E+01   -.655E-06 -.694E-06 -.343E+01   0.318E-02 0.184E-02 0.181E-01   0.185E-02 0.107E-02 -.767E-02
   0.112E-01 0.647E-02 -.343E+01   -.148E-05 -.694E-06 0.343E+01   -.318E-02 -.184E-02 -.181E-01   -.185E-02 -.107E-02 0.767E-02
   -.293E-06 -.210E-06 0.524E-06   -.341E-05 -.393E-05 0.346E-05   0.000E+00 0.000E+00 0.000E+00   0.237E-10 0.127E-07 -.599E-08
   0.147E-06 0.237E-06 0.137E+02   -.468E-06 -.917E-06 -.137E+02   -.271E-18 0.542E-18 0.292E+00   -.959E-09 0.835E-08 -.398E-01
   -.289E-06 -.203E-06 -.137E+02   -.341E-05 -.393E-05 0.137E+02   0.217E-18 -.542E-18 -.292E+00   0.107E-08 0.121E-07 0.398E-01
   0.209E-06 0.278E-06 -.311E-11   -.807E-07 -.694E-06 -.142E-13   -.827E-24 0.000E+00 0.000E+00   -.133E-07 -.126E-10 -.256E-12
   0.151E-06 0.312E-06 0.760E-07   -.468E-06 -.471E-06 0.504E-06   0.000E+00 0.000E+00 0.000E+00   0.912E-10 -.778E-08 -.547E-08
   0.122E-06 0.278E-06 0.220E-10   -.655E-06 -.694E-06 -.284E-13   0.165E-23 0.000E+00 0.000E+00   0.132E-07 -.161E-10 -.502E-11
   0.172E-06 0.279E-06 -.869E-07   -.534E-06 -.105E-05 -.576E-06   0.993E-23 0.000E+00 0.000E+00   0.108E-09 0.903E-08 0.645E-08
 -----------------------------------------------------------------------------------------------
   -.473E-05 0.202E-05 -.796E-07   0.161E-12 -.129E-12 -.174E-12   0.125E-17 0.449E-16 0.000E+00   -.123E-08 0.185E-08 0.150E-08
 
 
 POSITION                                       TOTAL-FORCE (eV/Angst)
 -----------------------------------------------------------------------------------
      2.06371      5.95743      3.97794         0.011982      0.006918      0.011300
      2.06371      1.19149      6.62990        -0.011982     -0.006918     -0.011300
     -2.06371      5.95743      3.97794        -0.011982      0.006918      0.011300
      6.19114      1.19149      6.62990         0.011982     -0.006918     -0.011300
     -0.00000      2.38297      3.97794        -0.000000     -0.013836      0.011300
      4.12743      4.76594      6.62990         0.000000      0.013836     -0.011300
      4.12743      4.76594      1.32598         0.000000      0.017223     -0.004821
     -0.00000      2.38297      9.28186        -0.000000     -0.017223      0.004821
      2.06371      1.19149      1.32598        -0.014915     -0.008611     -0.004821
      2.06371      5.95743      9.28186         0.014915      0.008611      0.004821
      6.19114      1.19149      1.32598         0.014915     -0.008611     -0.004821
     -2.06371      5.95743      9.28186        -0.014915      0.008611      0.004821
      0.00000      4.76594      1.32598         0.000000      0.000000     -0.000883
      4.12743      2.38297      9.28186        -0.000000      0.000000      0.000883
      4.12743      2.38297      3.97794         0.000000      0.000000      0.024641
      0.00000      4.76594      6.62990        -0.000000      0.000000     -0.024641
      2.06371      5.95743      1.32598         0.009582      0.005532     -0.019979
      2.06371      1.19149      9.28186        -0.009582     -0.005532      0.019979
     -2.06371      5.95743      1.32598        -0.009582      0.005532     -0.019979
      6.19114      1.19149      9.28186         0.009582     -0.005532      0.019979
     -0.00000      2.38297      1.32598        -0.000000     -0.011065     -0.019979
      4.12743      4.76594      9.28186         0.000000      0.011065      0.019979
      4.12743      4.76594      3.97794        -0.000000      0.085376      0.067220
     -0.00000      2.38297      6.62990         0.000000     -0.085376     -0.067220
      2.06371      1.19149      3.97794        -0.073938     -0.042688      0.067220
      2.06371      5.95743      6.62990         0.073938      0.042688     -0.067220
      6.19114      1.19149      3.97794         0.073938     -0.042688      0.067220
     -2.06371      5.95743      6.62990        -0.073938      0.042688     -0.067220
      0.00000      4.76594      3.97794        -0.000000      0.000000     -0.001768
      4.12743      2.38297      6.62990         0.000000      0.000000      0.001768
      4.12743      2.38297      1.32598         0.000000      0.000000      0.023187
      0.00000      4.76594      9.28186        -0.000000      0.000000     -0.023187
      2.06371      3.57446      0.00000         0.000000      0.000000      0.000000
      4.12743      0.00000      0.00000        -0.000000      0.000000      0.000000
     -2.06371      3.57446      0.00000         0.000000      0.000000      0.000000
      2.06371      3.57446      2.65196         0.006176     -0.003566      0.005867
      2.06371      3.57446      7.95588        -0.006176      0.003566     -0.005867
      4.12743      0.00000      2.65196         0.000000      0.007132      0.005867
      4.12743      0.00000      7.95588        -0.000000     -0.007132     -0.005867
     -2.06371      3.57446      2.65196        -0.006176     -0.003566      0.005867
     -2.06371      3.57446      7.95588         0.006176      0.003566     -0.005867
      0.00000      0.00000      0.00000         0.000000      0.000000      0.000000
      0.00000      0.00000      2.65196         0.000000      0.000000      0.207271
      0.00000      0.00000      7.95588         0.000000      0.000000     -0.207271
      2.06371      3.57446      5.30392         0.000000      0.000000      0.000000
      4.12743      0.00000      5.30392         0.000000      0.000000      0.000000
     -2.06371      3.57446      5.30392         0.000000      0.000000      0.000000
      0.00000      0.00000      5.30392         0.000000      0.000000      0.000000
 -----------------------------------------------------------------------------------
    total drift:                               -0.000005      0.000002     -0.000000


--------------------------------------------------------------------------------------------------------



  FREE ENERGIE OF THE ION-ELECTRON SYSTEM (eV)
  ---------------------------------------------------
  free  energy   TOTEN  =      -312.96625791 eV

  energy  without entropy=     -312.92769636  energy(sigma->0) =     -312.95340406
 


--------------------------------------------------------------------------------------------------------


    POTLOK:  cpu time    0.2250: real time    0.2524


--------------------------------------------------------------------------------------------------------


     LOOP+:  cpu time15427.5297: real time15490.9832
    4ORBIT:  cpu time    0.0000: real time    0.0000
 


 total charge     
 
# of ion       s       p       d       tot
------------------------------------------
    1        0.459   0.495   8.438   9.393
    2        0.459   0.495   8.438   9.393
    3        0.459   0.495   8.438   9.393
    4        0.459   0.495   8.438   9.393
    5        0.459   0.495   8.438   9.393
    6        0.459   0.495   8.438   9.393
    7        0.460   0.498   8.439   9.397
    8        0.460   0.498   8.439   9.397
    9        0.460   0.498   8.439   9.397
   10        0.460   0.498   8.439   9.397
   11        0.460   0.498   8.439   9.397
   12        0.460   0.498   8.439   9.397
   13        0.460   0.499   8.437   9.397
   14        0.460   0.499   8.437   9.397
   15        0.461   0.497   8.440   9.398
   16        0.461   0.497   8.440   9.398
   17        1.086   1.243   0.116   2.445
   18        1.086   1.243   0.116   2.445
   19        1.086   1.243   0.116   2.445
   20        1.086   1.243   0.116   2.445
   21        1.086   1.243   0.116   2.445
   22        1.086   1.243   0.116   2.445
   23        1.086   1.240   0.115   2.441
   24        1.086   1.240   0.115   2.441
   25        1.086   1.240   0.115   2.441
   26        1.086   1.240   0.115   2.441
   27        1.086   1.240   0.115   2.441
   28        1.086   1.240   0.115   2.441
   29        1.087   1.243   0.116   2.445
   30        1.087   1.243   0.116   2.445
   31        1.085   1.245   0.115   2.446
   32        1.085   1.245   0.115   2.446
   33        0.275   0.309   5.068   5.652
   34        0.275   0.309   5.068   5.652
   35        0.275   0.309   5.068   5.652
   36        0.275   0.309   5.068   5.652
   37        0.275   0.309   5.068   5.652
   38        0.275   0.309   5.068   5.652
   39        0.275   0.309   5.068   5.652
   40        0.275   0.309   5.068   5.652
   41        0.275   0.309   5.068   5.652
   42        0.274   0.307   5.078   5.659
   43        0.274   0.312   5.054   5.640
   44        0.274   0.312   5.054   5.640
   45        0.276   0.310   5.066   5.652
   46        0.276   0.310   5.066   5.652
   47        0.276   0.310   5.066   5.652
   48        0.348   0.402   6.250   7.000
--------------------------------------------------
tot         29.208  32.868 219.114 281.190
 


 magnetization (x)
 
# of ion       s       p       d       tot
------------------------------------------
    1       -0.022  -0.033   0.176   0.122
    2       -0.022  -0.033   0.176   0.122
    3       -0.022  -0.033   0.176   0.122
    4       -0.022  -0.033   0.176   0.122
    5       -0.022  -0.033   0.176   0.122
    6       -0.022  -0.033   0.176   0.122
    7       -0.023  -0.033   0.176   0.121
    8       -0.023  -0.033   0.176   0.121
    9       -0.023  -0.033   0.176   0.121
   10       -0.023  -0.033   0.176   0.121
   11       -0.023  -0.033   0.176   0.121
   12       -0.023  -0.033   0.176   0.121
   13       -0.024  -0.033   0.182   0.125
   14       -0.024  -0.033   0.182   0.125
   15       -0.022  -0.031   0.181   0.128
   16       -0.022  -0.031   0.181   0.128
   17       -0.015  -0.093   0.004  -0.104
   18       -0.015  -0.093   0.004  -0.104
   19       -0.015  -0.093   0.004  -0.104
   20       -0.015  -0.093   0.004  -0.104
   21       -0.015  -0.093   0.004  -0.104
   22       -0.015  -0.093   0.004  -0.104
   23       -0.014  -0.089   0.003  -0.099
   24       -0.014  -0.089   0.003  -0.099
   25       -0.014  -0.089   0.003  -0.099
   26       -0.014  -0.089   0.003  -0.099
   27       -0.014  -0.089   0.003  -0.099
   28       -0.014  -0.089   0.003  -0.099
   29       -0.014  -0.093   0.004  -0.103
   30       -0.014  -0.093   0.004  -0.103
   31       -0.016  -0.096   0.004  -0.108
   32       -0.016  -0.096   0.004  -0.108
   33        0.020   0.019   2.970   3.009
   34        0.020   0.019   2.970   3.009
   35        0.020   0.019   2.970   3.009
   36        0.020   0.019   2.971   3.010
   37        0.020   0.019   2.971   3.010
   38        0.020   0.019   2.971   3.010
   39        0.020   0.019   2.971   3.010
   40        0.020   0.019   2.971   3.010
   41        0.020   0.019   2.971   3.010
   42        0.019   0.019   2.912   2.950
   43        0.021   0.018   3.066   3.106
   44        0.021   0.018   3.066   3.106
   45        0.019   0.020   2.973   3.012
   46        0.019   0.020   2.973   3.012
   47        0.019   0.020   2.973   3.012
   48        0.014   0.009   2.406   2.429
--------------------------------------------------
tot         -0.275  -1.693  50.005  48.036
 

 total amount of memory used by VASP MPI-rank0   622513. kBytes
=======================================================================

   base      :      30000. kBytes
   nonl-proj :      92691. kBytes
   fftplans  :       4706. kBytes
   grid      :      13171. kBytes
   one-center:        248. kBytes
   wavefun   :     481697. kBytes
 
  
  
 General timing and accounting informations for this job:
 ========================================================
  
                  Total CPU time used (sec):    15697.810
                            User time (sec):    15544.581
                          System time (sec):      153.229
                         Elapsed time (sec):    15769.971
  
                   Maximum memory used (kb):      879432.
                   Average memory used (kb):           0.
  
                          Minor page faults:        75427
                          Major page faults:          697
                 Voluntary context switches:         7448
