 vasp.6.1.1 19Jun20 (build Nov 30 2020 11:51:22) complex                        
  
 executed on             LinuxIFC date 2021.05.14  11:43:25
 running on   24 total cores
 distrk:  each k-point on   24 cores,    1 groups
 distr:  one band on NCORE=   6 cores,    4 groups


--------------------------------------------------------------------------------------------------------


 INCAR:
 POTCAR:    PAW_PBE Mn 06Sep2000                  
 POTCAR:    PAW_PBE Ni 02Aug2007                  
 POTCAR:    PAW_PBE Ge 05Jan2001                  
 POTCAR:    PAW_PBE Fe 06Sep2000                  
 POTCAR:    PAW_PBE Mn 06Sep2000                  
   SHA256 =  791c87526310ff945dc83749a51ee60ee299d345ff72743aeb14609b9ed68bfc Mn/POTCAR             
   COPYR  = (c) Copyright 06Sep2000 Georg Kresse                                                    
   COPYR  = This file is part of the software VASP. Any use, copying, and all other rights are regul
   COPYR  = If you do not have a valid VASP license, you may not use, copy or distribute this file. 
   VRHFIN =Mn: d6 s1                                                                                
   LEXCH  = PE                                                                                      
   EATOM  =   416.7541 eV,   30.6306 Ry                                                             
                                                                                                    
   TITEL  = PAW_PBE Mn 06Sep2000                                                                    
   LULTRA =        F    use ultrasoft PP ?                                                          
   IUNSCR =        1    unscreen: 0-lin 1-nonlin 2-no                                               
   RPACOR =    2.000    partial core radius                                                         
   POMASS =   54.938; ZVAL   =    7.000    mass and valenz                                          
   RCORE  =    2.300    outmost cutoff radius                                                       
   RWIGS  =    2.500; RWIGS  =    1.323    wigner-seitz radius (au A)                               
   ENMAX  =  269.864; ENMIN  =  202.398 eV                                                          
   RCLOC  =    1.725    cutoff for local pot                                                        
   LCOR   =        T    correct aug charges                                                         
   LPAW   =        T    paw PP                                                                      
   EAUG   =  500.711                                                                                
   DEXC   =    0.000                                                                                
   RMAX   =    2.343    core radius for proj-oper                                                   
   RAUG   =    1.300    factor for augmentation sphere                                              
   RDEP   =    2.338    radius for radial grids                                                     
   RDEPT  =    1.911    core radius for aug-charge                                                  
                                                                                                    
   Atomic configuration                                                                             
    9 entries                                                                                       
     n  l   j            E        occ.                                                              
     1  0  0.50     -6424.8288   2.0000                                                             
     2  0  0.50      -739.1154   2.0000                                                             
     2  1  1.50      -625.3949   6.0000                                                             
     3  0  0.50       -81.6100   2.0000                                                             
     3  1  1.50       -50.4667   6.0000                                                             
     3  2  2.50        -3.3745   6.0000                                                             
     4  0  0.50        -4.1331   1.0000                                                             
     4  1  0.50        -4.0817   0.0000                                                             
     4  3  2.50        -1.3606   0.0000                                                             
   Description                                                                                      
     l       E           TYP  RCUT    TYP  RCUT                                                     
     2     -3.3744664     23  2.300                                                                 
     2     -4.7350490     23  2.300                                                                 
     0     -4.1331408     23  2.300                                                                 
     0      7.6656614     23  2.300                                                                 
     1     -2.7211652     23  2.300                                                                 
     1     20.4087390     23  2.300                                                                 
  local pseudopotential read in
  partial core-charges read in
  partial kinetic energy density read in
  atomic valenz-charges read in
  non local Contribution for L=           2  read in
    real space projection operators read in
  non local Contribution for L=           2  read in
    real space projection operators read in
  non local Contribution for L=           0  read in
    real space projection operators read in
  non local Contribution for L=           0  read in
    real space projection operators read in
  non local Contribution for L=           1  read in
    real space projection operators read in
  non local Contribution for L=           1  read in
    real space projection operators read in
    PAW grid and wavefunctions read in
 
   number of l-projection  operators is LMAX  =           6
   number of lm-projection operators is LMMAX =          18
 
 POTCAR:    PAW_PBE Ni 02Aug2007                  
   SHA256 =  0534bc51ca8003dfef23f56753fef9fdd3e22eac8d719fccacb59f3e6b7a69c7 Ni/POTCAR             
   COPYR  = (c) Copyright 02Aug2007 Georg Kresse                                                    
   COPYR  = This file is part of the software VASP. Any use, copying, and all other rights are regul
   COPYR  = If you do not have a valid VASP license, you may not use, copy or distribute this file. 
   VRHFIN =Ni:                                                                                      
   LEXCH  = PE                                                                                      
   EATOM  =  1077.6739 eV,   79.2068 Ry                                                             
                                                                                                    
   TITEL  = PAW_PBE Ni 02Aug2007                                                                    
   LULTRA =        F    use ultrasoft PP ?                                                          
   IUNSCR =        1    unscreen: 0-lin 1-nonlin 2-no                                               
   RPACOR =    2.000    partial core radius                                                         
   POMASS =   58.690; ZVAL   =   10.000    mass and valenz                                          
   RCORE  =    2.300    outmost cutoff radius                                                       
   RWIGS  =    2.430; RWIGS  =    1.286    wigner-seitz radius (au A)                               
   ENMAX  =  269.532; ENMIN  =  202.149 eV                                                          
   RCLOC  =    1.201    cutoff for local pot                                                        
   LCOR   =        T    correct aug charges                                                         
   LPAW   =        T    paw PP                                                                      
   EAUG   =  544.565                                                                                
   DEXC   =    0.000                                                                                
   RMAX   =    2.357    core radius for proj-oper                                                   
   RAUG   =    1.300    factor for augmentation sphere                                              
   RDEP   =    2.390    radius for radial grids                                                     
   RDEPT  =    1.838    core radius for aug-charge                                                  
                                                                                                    
   Atomic configuration                                                                             
    9 entries                                                                                       
     n  l   j            E        occ.                                                              
     1  0  0.50     -8206.4253   2.0000                                                             
     2  0  0.50      -976.1748   2.0000                                                             
     2  1  1.50      -839.0571   6.0000                                                             
     3  0  0.50      -105.9991   2.0000                                                             
     3  1  1.50       -66.4603   6.0000                                                             
     3  2  2.50        -4.6458   9.0000                                                             
     4  0  0.50        -4.4926   1.0000                                                             
     4  1  1.50        -4.0817   0.0000                                                             
     4  3  2.50        -1.3606   0.0000                                                             
   Description                                                                                      
     l       E           TYP  RCUT    TYP  RCUT                                                     
     2     -4.6457903     23  2.300                                                                 
     2     -6.0063729     23  2.300                                                                 
     0     -4.4925590     23  2.300                                                                 
     0      5.0102601     23  2.300                                                                 
     1     -2.7211652     23  2.300                                                                 
     1     16.5183231     23  2.300                                                                 
  local pseudopotential read in
  partial core-charges read in
  partial kinetic energy density read in
  atomic valenz-charges read in
  non local Contribution for L=           2  read in
    real space projection operators read in
  non local Contribution for L=           2  read in
    real space projection operators read in
  non local Contribution for L=           0  read in
    real space projection operators read in
  non local Contribution for L=           0  read in
    real space projection operators read in
  non local Contribution for L=           1  read in
    real space projection operators read in
  non local Contribution for L=           1  read in
    real space projection operators read in
    PAW grid and wavefunctions read in
 
   number of l-projection  operators is LMAX  =           6
   number of lm-projection operators is LMMAX =          18
 
 POTCAR:    PAW_PBE Ge 05Jan2001                  
   SHA256 =  7ff11deedcda39f1950abeda971a84a1f98a719a97bc9679a0df455c008734f8 Ge/POTCAR             
   COPYR  = (c) Copyright 05Jan2001 Georg Kresse                                                    
   COPYR  = This file is part of the software VASP. Any use, copying, and all other rights are regul
   COPYR  = If you do not have a valid VASP license, you may not use, copy or distribute this file. 
   VRHFIN =Ge: s2p2                                                                                 
   LEXCH  = PE                                                                                      
   EATOM  =   104.9960 eV,    7.7170 Ry                                                             
                                                                                                    
   TITEL  = PAW_PBE Ge 05Jan2001                                                                    
   LULTRA =        F    use ultrasoft PP ?                                                          
   IUNSCR =        1    unscreen: 0-lin 1-nonlin 2-no                                               
   RPACOR =    2.170    partial core radius                                                         
   POMASS =   72.610; ZVAL   =    4.000    mass and valenz                                          
   RCORE  =    2.300    outmost cutoff radius                                                       
   RWIGS  =    2.300; RWIGS  =    1.217    wigner-seitz radius (au A)                               
   ENMAX  =  173.807; ENMIN  =  130.355 eV                                                          
   ICORE  =        3    local potential                                                             
   LCOR   =        T    correct aug charges                                                         
   LPAW   =        T    paw PP                                                                      
   EAUG   =  385.843                                                                                
   DEXC   =    0.000                                                                                
   RMAX   =    2.342    core radius for proj-oper                                                   
   RAUG   =    1.300    factor for augmentation sphere                                              
   RDEP   =    2.318    radius for radial grids                                                     
   RDEPT  =    2.103    core radius for aug-charge                                                  
                                                                                                    
   Atomic configuration                                                                             
   10 entries                                                                                       
     n  l   j            E        occ.                                                              
     1  0  0.50    -10959.8463   2.0000                                                             
     2  0  0.50     -1371.6056   2.0000                                                             
     2  1  1.50     -1198.4791   6.0000                                                             
     3  0  0.50      -168.4733   2.0000                                                             
     3  1  1.50      -115.6019   6.0000                                                             
     3  2  2.50       -29.3106  10.0000                                                             
     4  0  0.50       -11.7309   2.0000                                                             
     4  1  0.50        -3.8952   2.0000                                                             
     4  2  1.50        -4.0817   0.0000                                                             
     4  3  2.50        -4.0817   0.0000                                                             
   Description                                                                                      
     l       E           TYP  RCUT    TYP  RCUT                                                     
     0    -11.7309493     23  2.300                                                                 
     0     -7.4578696     23  2.300                                                                 
     1     -3.8952261     23  2.300                                                                 
     1      6.1178114     23  2.300                                                                 
     2     -4.0817478     23  2.300                                                                 
     3     -1.3605826      7  2.300                                                                 
  local pseudopotential read in
  partial core-charges read in
  partial kinetic energy density read in
  atomic valenz-charges read in
  non local Contribution for L=           0  read in
    real space projection operators read in
  non local Contribution for L=           0  read in
    real space projection operators read in
  non local Contribution for L=           1  read in
    real space projection operators read in
  non local Contribution for L=           1  read in
    real space projection operators read in
  non local Contribution for L=           2  read in
    real space projection operators read in
    PAW grid and wavefunctions read in
 
   number of l-projection  operators is LMAX  =           5
   number of lm-projection operators is LMMAX =          13
 
 POTCAR:    PAW_PBE Fe 06Sep2000                  
   SHA256 =  cd5a22d9368cc8b5cc476bea79732366149640da08ac9009b0e1b7fc627eea28 Fe/POTCAR             
   COPYR  = (c) Copyright 06Sep2000 Georg Kresse                                                    
   COPYR  = This file is part of the software VASP. Any use, copying, and all other rights are regul
   COPYR  = If you do not have a valid VASP license, you may not use, copy or distribute this file. 
   VRHFIN =Fe:  d7 s1                                                                               
   LEXCH  = PE                                                                                      
   EATOM  =   594.3153 eV,   43.6809 Ry                                                             
                                                                                                    
   TITEL  = PAW_PBE Fe 06Sep2000                                                                    
   LULTRA =        F    use ultrasoft PP ?                                                          
   IUNSCR =        1    unscreen: 0-lin 1-nonlin 2-no                                               
   RPACOR =    2.000    partial core radius                                                         
   POMASS =   55.847; ZVAL   =    8.000    mass and valenz                                          
   RCORE  =    2.300    outmost cutoff radius                                                       
   RWIGS  =    2.460; RWIGS  =    1.302    wigner-seitz radius (au A)                               
   ENMAX  =  267.882; ENMIN  =  200.911 eV                                                          
   RCLOC  =    1.701    cutoff for local pot                                                        
   LCOR   =        T    correct aug charges                                                         
   LPAW   =        T    paw PP                                                                      
   EAUG   =  511.368                                                                                
   DEXC   =    0.000                                                                                
   RMAX   =    2.356    core radius for proj-oper                                                   
   RAUG   =    1.300    factor for augmentation sphere                                              
   RDEP   =    2.442    radius for radial grids                                                     
   RDEPT  =    1.890    core radius for aug-charge                                                  
                                                                                                    
   Atomic configuration                                                                             
    9 entries                                                                                       
     n  l   j            E        occ.                                                              
     1  0  0.50     -6993.8440   2.0000                                                             
     2  0  0.50      -814.6047   2.0000                                                             
     2  1  1.50      -693.3689   6.0000                                                             
     3  0  0.50       -89.4732   2.0000                                                             
     3  1  1.50       -55.6373   6.0000                                                             
     3  2  2.50        -3.8151   7.0000                                                             
     4  0  0.50        -4.2551   1.0000                                                             
     4  1  1.50        -3.4015   0.0000                                                             
     4  3  2.50        -1.3606   0.0000                                                             
   Description                                                                                      
     l       E           TYP  RCUT    TYP  RCUT                                                     
     2     -3.8151135     23  2.300                                                                 
     2     -5.1756961     23  2.300                                                                 
     0     -4.2550963     23  2.300                                                                 
     0      7.2035603     23  2.300                                                                 
     1     -2.7211652     23  2.300                                                                 
     1     18.4316424     23  2.300                                                                 
  local pseudopotential read in
  partial core-charges read in
  partial kinetic energy density read in
  atomic valenz-charges read in
  non local Contribution for L=           2  read in
    real space projection operators read in
  non local Contribution for L=           2  read in
    real space projection operators read in
  non local Contribution for L=           0  read in
    real space projection operators read in
  non local Contribution for L=           0  read in
    real space projection operators read in
  non local Contribution for L=           1  read in
    real space projection operators read in
  non local Contribution for L=           1  read in
    real space projection operators read in
    PAW grid and wavefunctions read in
 
   number of l-projection  operators is LMAX  =           6
   number of lm-projection operators is LMMAX =          18
 
 -----------------------------------------------------------------------------
|                                                                             |
|               ----> ADVICE to this user running VASP <----                  |
|                                                                             |
|     You have a (more or less) 'large supercell' and for larger cells it     |
|     might be more efficient to use real-space projection operators.         |
|     Therefore, try LREAL= Auto in the INCAR file.                           |
|     Mind: For very accurate calculation, you might also keep the            |
|     reciprocal projection scheme (i.e. LREAL=.FALSE.).                      |
|                                                                             |
 -----------------------------------------------------------------------------

  PAW_PBE Mn 06Sep2000                  :
 energy of atom  1       EATOM= -416.7541
 kinetic energy error for atom=    0.0033 (will be added to EATOM!!)
  PAW_PBE Ni 02Aug2007                  :
 energy of atom  2       EATOM=-1077.6739
 kinetic energy error for atom=    0.0038 (will be added to EATOM!!)
  PAW_PBE Ge 05Jan2001                  :
 energy of atom  3       EATOM= -104.9960
 kinetic energy error for atom=    0.0003 (will be added to EATOM!!)
  PAW_PBE Fe 06Sep2000                  :
 energy of atom  4       EATOM= -594.3153
 kinetic energy error for atom=    0.0034 (will be added to EATOM!!)
 
 
 POSCAR: MnNiGe_orth
  positions in direct lattice
  velocities in cartesian coordinates
 exchange correlation table for  LEXCH =        8
   RHO(1)=    0.500       N(1)  =     2000
   RHO(2)=  100.500       N(2)  =     4000
 


--------------------------------------------------------------------------------------------------------


 ion  position               nearest neighbor table
   1  0.242  0.250  0.178-  41 2.48  45 2.48  32 2.54  44 2.73  40 2.73  16 2.76  18 2.76  29 2.83
                            25 2.83  24 2.89  28 2.89  14 3.13  10 3.13   7 3.17   3 3.17
   2  0.242  0.750  0.178-  41 2.48  45 2.48  33 2.54  44 2.73  40 2.73  17 2.76  19 2.76  29 2.83
                            25 2.83  24 2.89  28 2.89  14 3.13  10 3.13   8 3.17   4 3.17
   3  0.492  0.250  0.322-  42 2.48  46 2.48  34 2.54  45 2.73  41 2.73  18 2.76  20 2.76  30 2.83
                            26 2.83  25 2.89  29 2.89  11 3.13  48 3.13   1 3.17   5 3.17
   4  0.492  0.750  0.322-  42 2.48  46 2.48  35 2.54  45 2.73  41 2.73  19 2.76  21 2.76  30 2.83
                            26 2.83  25 2.89  29 2.89  11 3.13  48 3.13   2 3.17   6 3.17
   5  0.742  0.250  0.178-  43 2.48  47 2.48  36 2.54  46 2.73  42 2.73  20 2.76  22 2.76  31 2.83
                            27 2.83  26 2.89  30 2.89  15 3.13  12 3.13   7 3.17   3 3.17
   6  0.742  0.750  0.178-  43 2.48  47 2.48  37 2.54  46 2.73  42 2.73  21 2.76  23 2.76  31 2.83
                            27 2.83  26 2.89  30 2.89  15 3.13  12 3.13   8 3.17   4 3.17
   7  0.992  0.250  0.322-  40 2.48  44 2.48  38 2.54  43 2.73  47 2.73  22 2.76  16 2.76  28 2.83
                            24 2.83  31 2.89  27 2.89  13 3.13   9 3.13   1 3.17   5 3.17
   8  0.992  0.750  0.322-  40 2.48  44 2.48  39 2.54  43 2.73  47 2.73  23 2.76  17 2.76  28 2.83
                            24 2.83  31 2.89  27 2.89  13 3.13   9 3.13   2 3.17   6 3.17
   9  0.008  0.000  0.678-  38 2.48  39 2.48  40 2.54  33 2.73  32 2.73  24 2.76  27 2.76  23 2.83
                            22 2.83  17 2.89  16 2.89   8 3.13   7 3.13  10 3.17  12 3.17
  10  0.258  0.000  0.822-  32 2.48  33 2.48  41 2.54  35 2.73  34 2.73  25 2.76  24 2.76  17 2.83
                            16 2.83  19 2.89  18 2.89   2 3.13   1 3.13  11 3.17   9 3.17
  11  0.508  0.000  0.678-  34 2.48  35 2.48  42 2.54  37 2.73  36 2.73  26 2.76  25 2.76  19 2.83
                            18 2.83  21 2.89  20 2.89   4 3.13   3 3.13  10 3.17  12 3.17
  12  0.758  0.000  0.822-  36 2.48  37 2.48  43 2.54  39 2.73  38 2.73  27 2.76  26 2.76  21 2.83
                            20 2.83  23 2.89  22 2.89   6 3.13   5 3.13  11 3.17   9 3.17
  13  0.008  0.500  0.678-  38 2.48  39 2.48  44 2.54  33 2.73  32 2.73  28 2.76  31 2.76  23 2.83
                            22 2.83  17 2.89  16 2.89   8 3.13   7 3.13  14 3.17  15 3.17
  14  0.258  0.500  0.822-  32 2.48  33 2.48  45 2.54  35 2.73  34 2.73  29 2.76  28 2.76  17 2.83
                            16 2.83  19 2.89  18 2.89   2 3.13   1 3.13  13 3.17
  15  0.758  0.500  0.822-  36 2.48  37 2.48  47 2.54  39 2.73  38 2.73  31 2.76  30 2.76  21 2.83
                            20 2.83  23 2.89  22 2.89   6 3.13   5 3.13  13 3.17
  16  0.177  0.250  0.553-  40 2.32  44 2.32  32 2.37  34 2.44  25 2.67  29 2.67   1 2.76   7 2.76
                            10 2.83  14 2.83  13 2.89   9 2.89
  17  0.177  0.750  0.553-  40 2.32  44 2.32  33 2.37  35 2.44  25 2.67  29 2.67   2 2.76   8 2.76
                            10 2.83  14 2.83  13 2.89   9 2.89
  18  0.427  0.250  0.947-  41 2.32  45 2.32  34 2.37  36 2.44  26 2.67  30 2.67   3 2.76   1 2.76
                            11 2.83  48 2.83  14 2.89  10 2.89
  19  0.427  0.750  0.947-  41 2.32  45 2.32  35 2.37  37 2.44  26 2.67  30 2.67   4 2.76   2 2.76
                            11 2.83  48 2.83  14 2.89  10 2.89
  20  0.677  0.250  0.553-  42 2.32  46 2.32  36 2.37  38 2.44  27 2.67  31 2.67   5 2.76   3 2.76
                            12 2.83  15 2.83  11 2.89  48 2.89
  21  0.677  0.750  0.553-  42 2.32  46 2.32  37 2.37  39 2.44  27 2.67  31 2.67   6 2.76   4 2.76
                            12 2.83  15 2.83  11 2.89  48 2.89
  22  0.927  0.250  0.947-  43 2.32  47 2.32  38 2.37  32 2.44  24 2.67  28 2.67   7 2.76   5 2.76
                             9 2.83  13 2.83  12 2.89  15 2.89
  23  0.927  0.750  0.947-  43 2.32  47 2.32  39 2.37  33 2.44  24 2.67  28 2.67   8 2.76   6 2.76
                             9 2.83  13 2.83  12 2.89  15 2.89
  24  0.073  0.000  0.053-  32 2.32  33 2.32  40 2.37  43 2.44  22 2.67  23 2.67   9 2.76  10 2.76
                             7 2.83   8 2.83   1 2.89   2 2.89
  25  0.323  0.000  0.447-  34 2.32  35 2.32  41 2.37  40 2.44  16 2.67  17 2.67  10 2.76  11 2.76
                             1 2.83   2 2.83   3 2.89   4 2.89
  26  0.573  0.000  0.053-  36 2.32  37 2.32  42 2.37  41 2.44  18 2.67  19 2.67  11 2.76  12 2.76
                             3 2.83   4 2.83   5 2.89   6 2.89
  27  0.823  0.000  0.447-  38 2.32  39 2.32  43 2.37  42 2.44  20 2.67  21 2.67  12 2.76   9 2.76
                             5 2.83   6 2.83   7 2.89   8 2.89
  28  0.073  0.500  0.053-  32 2.32  33 2.32  44 2.37  47 2.44  22 2.67  23 2.67  13 2.76  14 2.76
                             7 2.83   8 2.83   1 2.89   2 2.89
  29  0.323  0.500  0.447-  34 2.32  35 2.32  45 2.37  44 2.44  16 2.67  17 2.67  14 2.76  48 2.76
                             1 2.83   2 2.83   3 2.89   4 2.89
  30  0.573  0.500  0.053-  36 2.32  37 2.32  46 2.37  45 2.44  18 2.67  19 2.67  48 2.76  15 2.76
                             3 2.83   4 2.83   5 2.89   6 2.89
  31  0.823  0.500  0.447-  38 2.32  39 2.32  47 2.37  46 2.44  20 2.67  21 2.67  15 2.76  13 2.76
                             5 2.83   6 2.83   7 2.89   8 2.89
  32  0.125  0.250  0.878-  24 2.32  28 2.32  16 2.37  22 2.44  10 2.48  14 2.48   1 2.54  13 2.73
                             9 2.73
  33  0.125  0.750  0.878-  24 2.32  28 2.32  17 2.37  23 2.44  10 2.48  14 2.48   2 2.54  13 2.73
                             9 2.73
  34  0.375  0.250  0.622-  25 2.32  29 2.32  18 2.37  16 2.44  11 2.48  48 2.48   3 2.54  14 2.73
                            10 2.73
  35  0.375  0.750  0.622-  25 2.32  29 2.32  19 2.37  17 2.44  11 2.48  48 2.48   4 2.54  14 2.73
                            10 2.73
  36  0.625  0.250  0.878-  26 2.32  30 2.32  20 2.37  18 2.44  12 2.48  15 2.48   5 2.54  11 2.73
                            48 2.73
  37  0.625  0.750  0.878-  26 2.32  30 2.32  21 2.37  19 2.44  12 2.48  15 2.48   6 2.54  11 2.73
                            48 2.73
  38  0.875  0.250  0.622-  27 2.32  31 2.32  22 2.37  20 2.44   9 2.48  13 2.48   7 2.54  12 2.73
                            15 2.73
  39  0.875  0.750  0.622-  27 2.32  31 2.32  23 2.37  21 2.44   9 2.48  13 2.48   8 2.54  12 2.73
                            15 2.73
  40  0.125  0.000  0.378-  16 2.32  17 2.32  24 2.37  25 2.44   7 2.48   8 2.48   9 2.54   2 2.73
                             1 2.73
  41  0.375  0.000  0.122-  18 2.32  19 2.32  25 2.37  26 2.44   1 2.48   2 2.48  10 2.54   4 2.73
                             3 2.73
  42  0.625  0.000  0.378-  20 2.32  21 2.32  26 2.37  27 2.44   3 2.48   4 2.48  11 2.54   6 2.73
                             5 2.73
  43  0.875  0.000  0.122-  22 2.32  23 2.32  27 2.37  24 2.44   5 2.48   6 2.48  12 2.54   8 2.73
                             7 2.73
  44  0.125  0.500  0.378-  16 2.32  17 2.32  28 2.37  29 2.44   7 2.48   8 2.48  13 2.54   2 2.73
                             1 2.73
  45  0.375  0.500  0.122-  18 2.32  19 2.32  29 2.37  30 2.44   1 2.48   2 2.48  14 2.54   4 2.73
                             3 2.73
  46  0.625  0.500  0.378-  20 2.32  21 2.32  30 2.37  31 2.44   3 2.48   4 2.48  48 2.54   6 2.73
                             5 2.73
  47  0.875  0.500  0.122-  22 2.32  23 2.32  31 2.37  28 2.44   5 2.48   6 2.48  15 2.54   8 2.73
                             7 2.73
  48  0.508  0.500  0.678-  34 2.48  35 2.48  46 2.54  37 2.73  36 2.73  30 2.76  29 2.76  19 2.83
                            18 2.83  21 2.89  20 2.89   4 3.13   3 3.13
 
  LATTYP: Found a simple orthorhombic cell.
 ALAT       =     7.0446418581
 B/A-ratio  =     1.0555008508
 C/A-ratio  =     1.7085169161
  
  Lattice vectors:
  
 A1 = (   0.0000000000,   0.0000000000,  -7.0446418581)
 A2 = (   0.0000000000,  -7.4356254748,   0.0000000000)
 A3 = ( -12.0358897822,   0.0000000000,   0.0000000000)


Analysis of symmetry for initial positions (statically):
=====================================================================
 Subroutine PRICEL returns:
 Original cell was already a primitive cell.
 

 Routine SETGRP: Setting up the symmetry group for a 
 simple orthorhombic supercell.


 Subroutine GETGRP returns: Found  2 space group operations
 (whereof  2 operations were pure point group operations)
 out of a pool of  8 trial point group operations.


The static configuration has the point symmetry C_1h.


Analysis of symmetry for dynamics (positions and initial velocities):
=====================================================================
 Subroutine PRICEL returns:
 Original cell was already a primitive cell.
 

 Routine SETGRP: Setting up the symmetry group for a 
 simple orthorhombic supercell.


 Subroutine GETGRP returns: Found  2 space group operations
 (whereof  2 operations were pure point group operations)
 out of a pool of  8 trial point group operations.


The dynamic configuration has the point symmetry C_1h.


Analysis of structural, dynamic, and magnetic symmetry:
=====================================================================
 Subroutine PRICEL returns:
 Original cell was already a primitive cell.
 

 Routine SETGRP: Setting up the symmetry group for a 
 simple orthorhombic supercell.


 Subroutine GETGRP returns: Found  2 space group operations
 (whereof  2 operations were pure point group operations)
 out of a pool of  8 trial point group operations.


The magnetic configuration has the point symmetry C_1h.


 Subroutine INISYM returns: Found  2 space group operations
 (whereof  2 operations are pure point group operations),
 and found     1 'primitive' translations


----------------------------------------------------------------------------------------

                                     Primitive cell                                     

  volume of cell :     630.4558

  direct lattice vectors                    reciprocal lattice vectors
    12.035889782  0.000000000  0.000000000     0.083084842  0.000000000  0.000000000
     0.000000000  7.435625475  0.000000000     0.000000000  0.134487677  0.000000000
     0.000000000  0.000000000  7.044641858     0.000000000  0.000000000  0.141951858

  length of vectors
    12.035889782  7.435625475  7.044641858     0.083084842  0.134487677  0.141951858

  position of ions in fractional coordinates (direct lattice)
     0.241899997  0.250000000  0.178299993
     0.241899997  0.750000000  0.178299993
     0.491899997  0.250000000  0.321700007
     0.491899997  0.750000000  0.321700007
     0.741900027  0.250000000  0.178299993
     0.741900027  0.750000000  0.178299993
     0.991900027  0.250000000  0.321700007
     0.991900027  0.750000000  0.321700007
     0.008100000  0.000000000  0.678300023
     0.258100003  0.000000000  0.821699977
     0.508099973  0.000000000  0.678300023
     0.758099973  0.000000000  0.821699977
     0.008100000  0.500000000  0.678300023
     0.258100003  0.500000000  0.821699977
     0.758099973  0.500000000  0.821699977
     0.176699996  0.250000000  0.553300023
     0.176699996  0.750000000  0.553300023
     0.426699996  0.250000000  0.946699977
     0.426699996  0.750000000  0.946699977
     0.676699996  0.250000000  0.553300023
     0.676699996  0.750000000  0.553300023
     0.926699996  0.250000000  0.946699977
     0.926699996  0.750000000  0.946699977
     0.073299997  0.000000000  0.053300001
     0.323300004  0.000000000  0.446700007
     0.573300004  0.000000000  0.053300001
     0.823300004  0.000000000  0.446700007
     0.073299997  0.500000000  0.053300001
     0.323300004  0.500000000  0.446700007
     0.573300004  0.500000000  0.053300001
     0.823300004  0.500000000  0.446700007
     0.125249997  0.250000000  0.878300011
     0.125249997  0.750000000  0.878300011
     0.375250012  0.250000000  0.621699989
     0.375250012  0.750000000  0.621699989
     0.625249982  0.250000000  0.878300011
     0.625249982  0.750000000  0.878300011
     0.875249982  0.250000000  0.621699989
     0.875249982  0.750000000  0.621699989
     0.124750003  0.000000000  0.378300011
     0.374749988  0.000000000  0.121699996
     0.624750018  0.000000000  0.378300011
     0.874750018  0.000000000  0.121699996
     0.124750003  0.500000000  0.378300011
     0.374749988  0.500000000  0.121699996
     0.624750018  0.500000000  0.378300011
     0.874750018  0.500000000  0.121699996
     0.508099973  0.500000000  0.678300023

  ion indices of the primitive-cell ions
   primitive index   ion index
                 1           1
                 2           2
                 3           3
                 4           4
                 5           5
                 6           6
                 7           7
                 8           8
                 9           9
                10          10
                11          11
                12          12
                13          13
                14          14
                15          15
                16          16
                17          17
                18          18
                19          19
                20          20
                21          21
                22          22
                23          23
                24          24
                25          25
                26          26
                27          27
                28          28
                29          29
                30          30
                31          31
                32          32
                33          33
                34          34
                35          35
                36          36
                37          37
                38          38
                39          39
                40          40
                41          41
                42          42
                43          43
                44          44
                45          45
                46          46
                47          47
                48          48

----------------------------------------------------------------------------------------

 
 
 KPOINTS: Auto                                    

Automatic generation of k-mesh.
Space group operators:
 irot       det(A)        alpha          n_x          n_y          n_z        tau_x        tau_y        tau_z
    1     1.000000     0.000000     1.000000     0.000000     0.000000     0.000000     0.000000     0.000000
    2    -1.000000   179.999999     0.000000     1.000000     0.000000     0.000000     0.000000     0.000000
 TETIRR: Found    586 inequivalent tetrahedra from     1176
 
 Subroutine IBZKPT returns following result:
 ===========================================
 
 Found     60 irreducible k-points:
 
 Following reciprocal coordinates:
            Coordinates               Weight
  0.000000  0.000000  0.000000      1.000000
  0.250000  0.000000  0.000000      2.000000
  0.500000  0.000000  0.000000      1.000000
  0.000000  0.142857  0.000000      2.000000
  0.250000  0.142857  0.000000      4.000000
  0.500000  0.142857  0.000000      2.000000
  0.000000  0.285714  0.000000      2.000000
  0.250000  0.285714  0.000000      4.000000
  0.500000  0.285714  0.000000      2.000000
  0.000000  0.428571  0.000000      2.000000
  0.250000  0.428571  0.000000      4.000000
  0.500000  0.428571  0.000000      2.000000
  0.000000  0.000000  0.142857      2.000000
  0.250000  0.000000  0.142857      2.000000
 -0.250000  0.000000  0.142857      2.000000
  0.500000  0.000000  0.142857      2.000000
  0.000000  0.142857  0.142857      4.000000
  0.250000  0.142857  0.142857      4.000000
 -0.250000 -0.142857  0.142857      4.000000
  0.500000  0.142857  0.142857      4.000000
  0.000000  0.285714  0.142857      4.000000
  0.250000  0.285714  0.142857      4.000000
 -0.250000 -0.285714  0.142857      4.000000
  0.500000  0.285714  0.142857      4.000000
  0.000000  0.428571  0.142857      4.000000
  0.250000  0.428571  0.142857      4.000000
 -0.250000 -0.428571  0.142857      4.000000
  0.500000  0.428571  0.142857      4.000000
  0.000000  0.000000  0.285714      2.000000
  0.250000  0.000000  0.285714      2.000000
 -0.250000  0.000000  0.285714      2.000000
  0.500000  0.000000  0.285714      2.000000
  0.000000  0.142857  0.285714      4.000000
  0.250000  0.142857  0.285714      4.000000
 -0.250000 -0.142857  0.285714      4.000000
  0.500000  0.142857  0.285714      4.000000
  0.000000  0.285714  0.285714      4.000000
  0.250000  0.285714  0.285714      4.000000
 -0.250000 -0.285714  0.285714      4.000000
  0.500000  0.285714  0.285714      4.000000
  0.000000  0.428571  0.285714      4.000000
  0.250000  0.428571  0.285714      4.000000
 -0.250000 -0.428571  0.285714      4.000000
  0.500000  0.428571  0.285714      4.000000
  0.000000  0.000000  0.428571      2.000000
  0.250000  0.000000  0.428571      2.000000
 -0.250000  0.000000  0.428571      2.000000
  0.500000  0.000000  0.428571      2.000000
  0.000000  0.142857  0.428571      4.000000
  0.250000  0.142857  0.428571      4.000000
 -0.250000 -0.142857  0.428571      4.000000
  0.500000  0.142857  0.428571      4.000000
  0.000000  0.285714  0.428571      4.000000
  0.250000  0.285714  0.428571      4.000000
 -0.250000 -0.285714  0.428571      4.000000
  0.500000  0.285714  0.428571      4.000000
  0.000000  0.428571  0.428571      4.000000
  0.250000  0.428571  0.428571      4.000000
 -0.250000 -0.428571  0.428571      4.000000
  0.500000  0.428571  0.428571      4.000000
 
 Following cartesian coordinates:
            Coordinates               Weight
  0.000000  0.000000  0.000000      1.000000
  0.020771  0.000000  0.000000      2.000000
  0.041542  0.000000  0.000000      1.000000
  0.000000  0.019213  0.000000      2.000000
  0.020771  0.019213  0.000000      4.000000
  0.041542  0.019213  0.000000      2.000000
  0.000000  0.038425  0.000000      2.000000
  0.020771  0.038425  0.000000      4.000000
  0.041542  0.038425  0.000000      2.000000
  0.000000  0.057638  0.000000      2.000000
  0.020771  0.057638  0.000000      4.000000
  0.041542  0.057638  0.000000      2.000000
  0.000000  0.000000  0.020279      2.000000
  0.020771  0.000000  0.020279      2.000000
 -0.020771  0.000000  0.020279      2.000000
  0.041542  0.000000  0.020279      2.000000
  0.000000  0.019213  0.020279      4.000000
  0.020771  0.019213  0.020279      4.000000
 -0.020771 -0.019213  0.020279      4.000000
  0.041542  0.019213  0.020279      4.000000
  0.000000  0.038425  0.020279      4.000000
  0.020771  0.038425  0.020279      4.000000
 -0.020771 -0.038425  0.020279      4.000000
  0.041542  0.038425  0.020279      4.000000
  0.000000  0.057638  0.020279      4.000000
  0.020771  0.057638  0.020279      4.000000
 -0.020771 -0.057638  0.020279      4.000000
  0.041542  0.057638  0.020279      4.000000
  0.000000  0.000000  0.040558      2.000000
  0.020771  0.000000  0.040558      2.000000
 -0.020771  0.000000  0.040558      2.000000
  0.041542  0.000000  0.040558      2.000000
  0.000000  0.019213  0.040558      4.000000
  0.020771  0.019213  0.040558      4.000000
 -0.020771 -0.019213  0.040558      4.000000
  0.041542  0.019213  0.040558      4.000000
  0.000000  0.038425  0.040558      4.000000
  0.020771  0.038425  0.040558      4.000000
 -0.020771 -0.038425  0.040558      4.000000
  0.041542  0.038425  0.040558      4.000000
  0.000000  0.057638  0.040558      4.000000
  0.020771  0.057638  0.040558      4.000000
 -0.020771 -0.057638  0.040558      4.000000
  0.041542  0.057638  0.040558      4.000000
  0.000000  0.000000  0.060837      2.000000
  0.020771  0.000000  0.060837      2.000000
 -0.020771  0.000000  0.060837      2.000000
  0.041542  0.000000  0.060837      2.000000
  0.000000  0.019213  0.060837      4.000000
  0.020771  0.019213  0.060837      4.000000
 -0.020771 -0.019213  0.060837      4.000000
  0.041542  0.019213  0.060837      4.000000
  0.000000  0.038425  0.060837      4.000000
  0.020771  0.038425  0.060837      4.000000
 -0.020771 -0.038425  0.060837      4.000000
  0.041542  0.038425  0.060837      4.000000
  0.000000  0.057638  0.060837      4.000000
  0.020771  0.057638  0.060837      4.000000
 -0.020771 -0.057638  0.060837      4.000000
  0.041542  0.057638  0.060837      4.000000
 


--------------------------------------------------------------------------------------------------------




 Dimension of arrays:
   k-points           NKPTS =     60   k-points in BZ     NKDIM =     60   number of bands    NBANDS=    360
   number of dos      NEDOS =   1501   number of ions     NIONS =     48
   non local maximal  LDIM  =      6   non local SUM 2l+1 LMDIM =     18
   total plane-waves  NPLWV = 226800
   max r-space proj   IRMAX =      1   max aug-charges    IRDMAX=  19749
   dimension x,y,z NGX =    84 NGY =   54 NGZ =   50
   dimension x,y,z NGXF=   168 NGYF=  108 NGZF=  100
   support grid    NGXF=   168 NGYF=  108 NGZF=  100
   ions per type =              15  16  16   1
   NGX,Y,Z   is equivalent  to a cutoff of  11.60, 12.07, 11.80 a.u.
   NGXF,Y,Z  is equivalent  to a cutoff of  23.21, 24.15, 23.60 a.u.

 SYSTEM =  MnFeNiGe_mag_DOS                        
 POSCAR =  MnNiGe_orth                             

 Startparameter for this run:
   NWRITE =      2    write-flag & timer
   PREC   = accura    normal or accurate (medium, high low for compatibility)
   ISTART =      1    job   : 0-new  1-cont  2-samecut
   ICHARG =     11    charge: 1-file 2-atom 10-const
   ISPIN  =      2    spin polarized calculation?
   LNONCOLLINEAR =      F non collinear calculations
   LSORBIT =      F    spin-orbit coupling
   INIWAV =      1    electr: 0-lowe 1-rand  2-diag
   LASPH  =      F    aspherical Exc in radial PAW
   METAGGA=      F    non-selfconsistent MetaGGA calc.

 Electronic Relaxation 1
   ENCUT  =  450.0 eV  33.07 Ry    5.75 a.u.  20.82 12.86 12.18*2*pi/ulx,y,z
   ENINI  =  450.0     initial cutoff
   ENAUG  =  544.6 eV  augmentation charge cutoff
   NELM   =     60;   NELMIN=  5; NELMDL=  0     # of ELM steps 
   EDIFF  = 0.1E-05   stopping-criterion for ELM
   LREAL  =      F    real-space projection
   NLSPLINE    = F    spline interpolate recip. space projectors
   LCOMPAT=      F    compatible to vasp.4.4
   GGA_COMPAT  = T    GGA compatible to vasp.4.4-vasp.4.6
   LMAXPAW     = -100 max onsite density
   LMAXMIX     =    2 max onsite mixed and CHGCAR
   VOSKOWN=      0    Vosko Wilk Nusair interpolation
   ROPT   =    0.00000   0.00000   0.00000   0.00000
 Ionic relaxation
   EDIFFG = 0.1E-04   stopping-criterion for IOM
   NSW    =      0    number of steps for IOM
   NBLOCK =      1;   KBLOCK =      1    inner block; outer block 
   IBRION =     -1    ionic relax: 0-MD 1-quasi-New 2-CG
   NFREE  =      0    steps in history (QN), initial steepest desc. (CG)
   ISIF   =      2    stress and relaxation
   IWAVPR =     10    prediction:  0-non 1-charg 2-wave 3-comb
   ISYM   =      2    0-nonsym 1-usesym 2-fastsym
   LCORR  =      T    Harris-Foulkes like correction to forces

   POTIM  = 0.5000    time-step for ionic-motion
   TEIN   =    0.0    initial temperature
   TEBEG  =    0.0;   TEEND  =   0.0 temperature during run
   SMASS  =  -3.00    Nose mass-parameter (am)
   estimated Nose-frequenzy (Omega)   =  0.10E-29 period in steps = 0.13E+47 mass=  -0.331E-26a.u.
   SCALEE = 1.0000    scale energy and forces
   NPACO  =    256;   APACO  = 16.0  distance and # of slots for P.C.
   PSTRESS=    0.0 pullay stress

  Mass of Ions in am
   POMASS =  54.94 58.69 72.61 55.85
  Ionic Valenz
   ZVAL   =   7.00 10.00  4.00  8.00
  Atomic Wigner-Seitz radii
   RWIGS  =  -1.00 -1.00 -1.00 -1.00
  virtual crystal weights 
   VCA    =   1.00  1.00  1.00  1.00
   NELECT =     337.0000    total number of electrons
   NUPDOWN=      -1.0000    fix difference up-down

 DOS related values:
   EMIN   = -10.00;   EMAX   = 15.00  energy-range for DOS
   EFERMI =   0.00
   ISMEAR =    -5;   SIGMA  =   0.05  broadening in eV -4-tet -1-fermi 0-gaus

 Electronic relaxation 2 (details)
   IALGO  =     38    algorithm
   LDIAG  =      T    sub-space diagonalisation (order eigenvalues)
   LSUBROT=      F    optimize rotation matrix (better conditioning)
   TURBO    =      0    0=normal 1=particle mesh
   IRESTART =      0    0=no restart 2=restart with 2 vectors
   NREBOOT  =      0    no. of reboots
   NMIN     =      0    reboot dimension
   EREF     =   0.00    reference energy to select bands
   IMIX   =      4    mixing-type and parameters
     AMIX     =   0.40;   BMIX     =  1.00
     AMIX_MAG =   1.60;   BMIX_MAG =  1.00
     AMIN     =   0.10
     WC   =   100.;   INIMIX=   1;  MIXPRE=   1;  MAXMIX= -45

 Intra band minimization:
   WEIMIN = 0.0000     energy-eigenvalue tresh-hold
   EBREAK =  0.69E-09  absolut break condition
   DEPER  =   0.30     relativ break condition  

   TIME   =   0.40     timestep for ELM

  volume/ion in A,a.u.               =      13.13        88.64
  Fermi-wavevector in a.u.,A,eV,Ry     =   1.328617  2.510723 24.017332  1.765224
  Thomas-Fermi vector in A             =   2.457841
 
 Write flags
   LWAVE        =      F    write WAVECAR
   LDOWNSAMPLE  =      F    k-point downsampling of WAVECAR
   LCHARG       =      T    write CHGCAR
   LVTOT        =      F    write LOCPOT, total local potential
   LVHAR        =      F    write LOCPOT, Hartree potential only
   LELF         =      T    write electronic localiz. function (ELF)
   LORBIT       =     10    0 simple, 1 ext, 2 COOP (PROOUT), +10 PAW based schemes


 Dipole corrections
   LMONO  =      F    monopole corrections only (constant potential shift)
   LDIPOL =      F    correct potential (dipole corrections)
   IDIPOL =      0    1-x, 2-y, 3-z, 4-all directions 
   EPSILON=  1.0000000 bulk dielectric constant

 Exchange correlation treatment:
   GGA     =    --    GGA type
   LEXCH   =     8    internal setting for exchange type
   VOSKOWN=      0    Vosko Wilk Nusair interpolation
   LHFCALC =     F    Hartree Fock is set to
   LHFONE  =     F    Hartree Fock one center treatment
   AEXX    =    0.0000 exact exchange contribution

 Linear response parameters
   LEPSILON=     F    determine dielectric tensor
   LRPA    =     F    only Hartree local field effects (RPA)
   LNABLA  =     F    use nabla operator in PAW spheres
   LVEL    =     F    velocity operator in full k-point grid
   LINTERFAST=   F  fast interpolation
   KINTER  =     0    interpolate to denser k-point grid
   CSHIFT  =0.1000    complex shift for real part using Kramers Kronig
   OMEGAMAX=  -1.0    maximum frequency
   DEG_THRESHOLD= 0.2000000E-02 threshold for treating states as degnerate
   RTIME   =   -0.100 relaxation time in fs
  (WPLASMAI=    0.000 imaginary part of plasma frequency in eV, 0.658/RTIME)
   DFIELD  = 0.0000000 0.0000000 0.0000000 field for delta impulse in time
 
 Orbital magnetization related:
   ORBITALMAG=     F  switch on orbital magnetization
   LCHIMAG   =     F  perturbation theory with respect to B field
   DQ        =  0.001000  dq finite difference perturbation B field
   LLRAUG    =     F  two centre corrections for induced B field



--------------------------------------------------------------------------------------------------------


 Static calculation
 charge density and potential remain constant during run
 spin polarized calculation
 Variant of blocked Davidson
 Davidson routine will perform the subspace rotation
 perform sub-space diagonalisation
    after iterative eigenvector-optimisation
 no mixing
 using additional bands          191
 reciprocal scheme for non local part
 use partial core corrections
 calculate Harris-corrections to forces 
   (improved forces if not selfconsistent)
 use gradient corrections 
 WARNING: stress and forces are not correct
  (second derivative of E(xc) not defined)
 use of overlap-Matrix (Vanderbilt PP)
 Fermi weights with tetrahedron method with Bloechl corrections


--------------------------------------------------------------------------------------------------------


  energy-cutoff  :      450.00
  volume of cell :      630.46
      direct lattice vectors                 reciprocal lattice vectors
    12.035889782  0.000000000  0.000000000     0.083084842  0.000000000  0.000000000
     0.000000000  7.435625475  0.000000000     0.000000000  0.134487677  0.000000000
     0.000000000  0.000000000  7.044641858     0.000000000  0.000000000  0.141951858

  length of vectors
    12.035889782  7.435625475  7.044641858     0.083084842  0.134487677  0.141951858


 
 old parameters found on file WAVECAR:
  energy-cutoff  :      450.00
  volume of cell :      630.46
      direct lattice vectors                 reciprocal lattice vectors
    12.035889782  0.000000000  0.000000000     0.083084842  0.000000000  0.000000000
     0.000000000  7.435625475  0.000000000     0.000000000  0.134487677  0.000000000
     0.000000000  0.000000000  7.044641858     0.000000000  0.000000000  0.141951858

  length of vectors

 
 k-points in units of 2pi/SCALE and weight: Auto                                    
   0.00000000  0.00000000  0.00000000       0.005
   0.02077121  0.00000000  0.00000000       0.010
   0.04154242  0.00000000  0.00000000       0.005
   0.00000000  0.01921253  0.00000000       0.010
   0.02077121  0.01921253  0.00000000       0.020
   0.04154242  0.01921253  0.00000000       0.010
   0.00000000  0.03842505  0.00000000       0.010
   0.02077121  0.03842505  0.00000000       0.020
   0.04154242  0.03842505  0.00000000       0.010
   0.00000000  0.05763758  0.00000000       0.010
   0.02077121  0.05763758  0.00000000       0.020
   0.04154242  0.05763758  0.00000000       0.010
   0.00000000  0.00000000  0.02027884       0.010
   0.02077121  0.00000000  0.02027884       0.010
  -0.02077121  0.00000000  0.02027884       0.010
   0.04154242  0.00000000  0.02027884       0.010
   0.00000000  0.01921253  0.02027884       0.020
   0.02077121  0.01921253  0.02027884       0.020
  -0.02077121 -0.01921253  0.02027884       0.020
   0.04154242  0.01921253  0.02027884       0.020
   0.00000000  0.03842505  0.02027884       0.020
   0.02077121  0.03842505  0.02027884       0.020
  -0.02077121 -0.03842505  0.02027884       0.020
   0.04154242  0.03842505  0.02027884       0.020
   0.00000000  0.05763758  0.02027884       0.020
   0.02077121  0.05763758  0.02027884       0.020
  -0.02077121 -0.05763758  0.02027884       0.020
   0.04154242  0.05763758  0.02027884       0.020
   0.00000000  0.00000000  0.04055767       0.010
   0.02077121  0.00000000  0.04055767       0.010
  -0.02077121  0.00000000  0.04055767       0.010
   0.04154242  0.00000000  0.04055767       0.010
   0.00000000  0.01921253  0.04055767       0.020
   0.02077121  0.01921253  0.04055767       0.020
  -0.02077121 -0.01921253  0.04055767       0.020
   0.04154242  0.01921253  0.04055767       0.020
   0.00000000  0.03842505  0.04055767       0.020
   0.02077121  0.03842505  0.04055767       0.020
  -0.02077121 -0.03842505  0.04055767       0.020
   0.04154242  0.03842505  0.04055767       0.020
   0.00000000  0.05763758  0.04055767       0.020
   0.02077121  0.05763758  0.04055767       0.020
  -0.02077121 -0.05763758  0.04055767       0.020
   0.04154242  0.05763758  0.04055767       0.020
   0.00000000  0.00000000  0.06083651       0.010
   0.02077121  0.00000000  0.06083651       0.010
  -0.02077121  0.00000000  0.06083651       0.010
   0.04154242  0.00000000  0.06083651       0.010
   0.00000000  0.01921253  0.06083651       0.020
   0.02077121  0.01921253  0.06083651       0.020
  -0.02077121 -0.01921253  0.06083651       0.020
   0.04154242  0.01921253  0.06083651       0.020
   0.00000000  0.03842505  0.06083651       0.020
   0.02077121  0.03842505  0.06083651       0.020
  -0.02077121 -0.03842505  0.06083651       0.020
   0.04154242  0.03842505  0.06083651       0.020
   0.00000000  0.05763758  0.06083651       0.020
   0.02077121  0.05763758  0.06083651       0.020
  -0.02077121 -0.05763758  0.06083651       0.020
   0.04154242  0.05763758  0.06083651       0.020
 
 k-points in reciprocal lattice and weights: Auto                                    
   0.00000000  0.00000000  0.00000000       0.005
   0.25000000  0.00000000  0.00000000       0.010
   0.50000000  0.00000000  0.00000000       0.005
   0.00000000  0.14285714  0.00000000       0.010
   0.25000000  0.14285714  0.00000000       0.020
   0.50000000  0.14285714  0.00000000       0.010
   0.00000000  0.28571429  0.00000000       0.010
   0.25000000  0.28571429  0.00000000       0.020
   0.50000000  0.28571429  0.00000000       0.010
   0.00000000  0.42857143  0.00000000       0.010
   0.25000000  0.42857143  0.00000000       0.020
   0.50000000  0.42857143  0.00000000       0.010
   0.00000000  0.00000000  0.14285714       0.010
   0.25000000  0.00000000  0.14285714       0.010
  -0.25000000  0.00000000  0.14285714       0.010
   0.50000000  0.00000000  0.14285714       0.010
   0.00000000  0.14285714  0.14285714       0.020
   0.25000000  0.14285714  0.14285714       0.020
  -0.25000000 -0.14285714  0.14285714       0.020
   0.50000000  0.14285714  0.14285714       0.020
   0.00000000  0.28571429  0.14285714       0.020
   0.25000000  0.28571429  0.14285714       0.020
  -0.25000000 -0.28571429  0.14285714       0.020
   0.50000000  0.28571429  0.14285714       0.020
   0.00000000  0.42857143  0.14285714       0.020
   0.25000000  0.42857143  0.14285714       0.020
  -0.25000000 -0.42857143  0.14285714       0.020
   0.50000000  0.42857143  0.14285714       0.020
   0.00000000  0.00000000  0.28571429       0.010
   0.25000000  0.00000000  0.28571429       0.010
  -0.25000000  0.00000000  0.28571429       0.010
   0.50000000  0.00000000  0.28571429       0.010
   0.00000000  0.14285714  0.28571429       0.020
   0.25000000  0.14285714  0.28571429       0.020
  -0.25000000 -0.14285714  0.28571429       0.020
   0.50000000  0.14285714  0.28571429       0.020
   0.00000000  0.28571429  0.28571429       0.020
   0.25000000  0.28571429  0.28571429       0.020
  -0.25000000 -0.28571429  0.28571429       0.020
   0.50000000  0.28571429  0.28571429       0.020
   0.00000000  0.42857143  0.28571429       0.020
   0.25000000  0.42857143  0.28571429       0.020
  -0.25000000 -0.42857143  0.28571429       0.020
   0.50000000  0.42857143  0.28571429       0.020
   0.00000000  0.00000000  0.42857143       0.010
   0.25000000  0.00000000  0.42857143       0.010
  -0.25000000  0.00000000  0.42857143       0.010
   0.50000000  0.00000000  0.42857143       0.010
   0.00000000  0.14285714  0.42857143       0.020
   0.25000000  0.14285714  0.42857143       0.020
  -0.25000000 -0.14285714  0.42857143       0.020
   0.50000000  0.14285714  0.42857143       0.020
   0.00000000  0.28571429  0.42857143       0.020
   0.25000000  0.28571429  0.42857143       0.020
  -0.25000000 -0.28571429  0.42857143       0.020
   0.50000000  0.28571429  0.42857143       0.020
   0.00000000  0.42857143  0.42857143       0.020
   0.25000000  0.42857143  0.42857143       0.020
  -0.25000000 -0.42857143  0.42857143       0.020
   0.50000000  0.42857143  0.42857143       0.020
 
 position of ions in fractional coordinates (direct lattice) 
   0.24190000  0.25000000  0.17829999
   0.24190000  0.75000000  0.17829999
   0.49190000  0.25000000  0.32170001
   0.49190000  0.75000000  0.32170001
   0.74190003  0.25000000  0.17829999
   0.74190003  0.75000000  0.17829999
   0.99190003  0.25000000  0.32170001
   0.99190003  0.75000000  0.32170001
   0.00810000  0.00000000  0.67830002
   0.25810000  0.00000000  0.82169998
   0.50809997  0.00000000  0.67830002
   0.75809997  0.00000000  0.82169998
   0.00810000  0.50000000  0.67830002
   0.25810000  0.50000000  0.82169998
   0.75809997  0.50000000  0.82169998
   0.17670000  0.25000000  0.55330002
   0.17670000  0.75000000  0.55330002
   0.42670000  0.25000000  0.94669998
   0.42670000  0.75000000  0.94669998
   0.67670000  0.25000000  0.55330002
   0.67670000  0.75000000  0.55330002
   0.92670000  0.25000000  0.94669998
   0.92670000  0.75000000  0.94669998
   0.07330000  0.00000000  0.05330000
   0.32330000  0.00000000  0.44670001
   0.57330000  0.00000000  0.05330000
   0.82330000  0.00000000  0.44670001
   0.07330000  0.50000000  0.05330000
   0.32330000  0.50000000  0.44670001
   0.57330000  0.50000000  0.05330000
   0.82330000  0.50000000  0.44670001
   0.12525000  0.25000000  0.87830001
   0.12525000  0.75000000  0.87830001
   0.37525001  0.25000000  0.62169999
   0.37525001  0.75000000  0.62169999
   0.62524998  0.25000000  0.87830001
   0.62524998  0.75000000  0.87830001
   0.87524998  0.25000000  0.62169999
   0.87524998  0.75000000  0.62169999
   0.12475000  0.00000000  0.37830001
   0.37474999  0.00000000  0.12170000
   0.62475002  0.00000000  0.37830001
   0.87475002  0.00000000  0.12170000
   0.12475000  0.50000000  0.37830001
   0.37474999  0.50000000  0.12170000
   0.62475002  0.50000000  0.37830001
   0.87475002  0.50000000  0.12170000
   0.50809997  0.50000000  0.67830002
 
 position of ions in cartesian coordinates  (Angst):
   2.91148170  1.85890637  1.25605959
   2.91148170  5.57671911  1.25605959
   5.92045415  1.85890637  2.26626134
   5.92045415  5.57671911  2.26626134
   8.92942695  1.85890637  1.25605959
   8.92942695  5.57671911  1.25605959
  11.93839940  1.85890637  2.26626134
  11.93839940  5.57671911  2.26626134
   0.09749071  0.00000000  4.77838073
   3.10646319  0.00000000  5.78858205
   6.11543527  0.00000000  4.77838073
   9.12440772  0.00000000  5.78858205
   0.09749071  3.71781274  4.77838073
   3.10646319  3.71781274  5.78858205
   9.12440772  3.71781274  5.78858205
   2.12674168  1.85890637  3.89780050
   2.12674168  5.57671911  3.89780050
   5.13571412  1.85890637  6.66916229
   5.13571412  5.57671911  6.66916229
   8.14468657  1.85890637  3.89780050
   8.14468657  5.57671911  3.89780050
  11.15365901  1.85890637  6.66916229
  11.15365901  5.57671911  6.66916229
   0.88223068  0.00000000  0.37547942
   3.89120321  0.00000000  3.14684157
   6.90017566  0.00000000  0.37547942
   9.90914811  0.00000000  3.14684157
   0.88223068  3.71781274  0.37547942
   3.89120321  3.71781274  3.14684157
   6.90017566  3.71781274  0.37547942
   9.90914811  3.71781274  3.14684157
   1.50749516  1.85890637  6.18730902
   1.50749516  5.57671911  6.18730902
   4.51646779  1.85890637  4.37965377
   4.51646779  5.57671911  4.37965377
   7.52543987  1.85890637  6.18730902
   7.52543987  5.57671911  6.18730902
  10.53441232  1.85890637  4.37965377
  10.53441232  5.57671911  4.37965377
   1.50147729  0.00000000  2.66498809
   4.51044955  0.00000000  0.85733289
   7.51942236  0.00000000  2.66498809
  10.52839480  0.00000000  0.85733289
   1.50147729  3.71781274  2.66498809
   4.51044955  3.71781274  0.85733289
   7.51942236  3.71781274  2.66498809
  10.52839480  3.71781274  0.85733289
   6.11543527  3.71781274  4.77838073
 


--------------------------------------------------------------------------------------------------------


 k-point   1 :   0.0000 0.0000 0.0000  plane waves:   13661
 k-point   2 :   0.2500 0.0000 0.0000  plane waves:   13674
 k-point   3 :   0.5000 0.0000 0.0000  plane waves:   13638
 k-point   4 :   0.0000 0.1429 0.0000  plane waves:   13648
 k-point   5 :   0.2500 0.1429 0.0000  plane waves:   13669
 k-point   6 :   0.5000 0.1429 0.0000  plane waves:   13668
 k-point   7 :   0.0000 0.2857 0.0000  plane waves:   13642
 k-point   8 :   0.2500 0.2857 0.0000  plane waves:   13644
 k-point   9 :   0.5000 0.2857 0.0000  plane waves:   13680
 k-point  10 :   0.0000 0.4286 0.0000  plane waves:   13650
 k-point  11 :   0.2500 0.4286 0.0000  plane waves:   13661
 k-point  12 :   0.5000 0.4286 0.0000  plane waves:   13702
 k-point  13 :   0.0000 0.0000 0.1429  plane waves:   13673
 k-point  14 :   0.2500 0.0000 0.1429  plane waves:   13648
 k-point  15 :  -0.2500 0.0000 0.1429  plane waves:   13648
 k-point  16 :   0.5000 0.0000 0.1429  plane waves:   13650
 k-point  17 :   0.0000 0.1429 0.1429  plane waves:   13653
 k-point  18 :   0.2500 0.1429 0.1429  plane waves:   13645
 k-point  19 :  -0.2500-0.1429 0.1429  plane waves:   13645
 k-point  20 :   0.5000 0.1429 0.1429  plane waves:   13654
 k-point  21 :   0.0000 0.2857 0.1429  plane waves:   13654
 k-point  22 :   0.2500 0.2857 0.1429  plane waves:   13673
 k-point  23 :  -0.2500-0.2857 0.1429  plane waves:   13673
 k-point  24 :   0.5000 0.2857 0.1429  plane waves:   13656
 k-point  25 :   0.0000 0.4286 0.1429  plane waves:   13662
 k-point  26 :   0.2500 0.4286 0.1429  plane waves:   13668
 k-point  27 :  -0.2500-0.4286 0.1429  plane waves:   13668
 k-point  28 :   0.5000 0.4286 0.1429  plane waves:   13662
 k-point  29 :   0.0000 0.0000 0.2857  plane waves:   13654
 k-point  30 :   0.2500 0.0000 0.2857  plane waves:   13645
 k-point  31 :  -0.2500 0.0000 0.2857  plane waves:   13645
 k-point  32 :   0.5000 0.0000 0.2857  plane waves:   13648
 k-point  33 :   0.0000 0.1429 0.2857  plane waves:   13660
 k-point  34 :   0.2500 0.1429 0.2857  plane waves:   13650
 k-point  35 :  -0.2500-0.1429 0.2857  plane waves:   13650
 k-point  36 :   0.5000 0.1429 0.2857  plane waves:   13652
 k-point  37 :   0.0000 0.2857 0.2857  plane waves:   13681
 k-point  38 :   0.2500 0.2857 0.2857  plane waves:   13673
 k-point  39 :  -0.2500-0.2857 0.2857  plane waves:   13673
 k-point  40 :   0.5000 0.2857 0.2857  plane waves:   13698
 k-point  41 :   0.0000 0.4286 0.2857  plane waves:   13679
 k-point  42 :   0.2500 0.4286 0.2857  plane waves:   13674
 k-point  43 :  -0.2500-0.4286 0.2857  plane waves:   13674
 k-point  44 :   0.5000 0.4286 0.2857  plane waves:   13662
 k-point  45 :   0.0000 0.0000 0.4286  plane waves:   13664
 k-point  46 :   0.2500 0.0000 0.4286  plane waves:   13660
 k-point  47 :  -0.2500 0.0000 0.4286  plane waves:   13660
 k-point  48 :   0.5000 0.0000 0.4286  plane waves:   13652
 k-point  49 :   0.0000 0.1429 0.4286  plane waves:   13687
 k-point  50 :   0.2500 0.1429 0.4286  plane waves:   13671
 k-point  51 :  -0.2500-0.1429 0.4286  plane waves:   13671
 k-point  52 :   0.5000 0.1429 0.4286  plane waves:   13674
 k-point  53 :   0.0000 0.2857 0.4286  plane waves:   13674
 k-point  54 :   0.2500 0.2857 0.4286  plane waves:   13680
 k-point  55 :  -0.2500-0.2857 0.4286  plane waves:   13680
 k-point  56 :   0.5000 0.2857 0.4286  plane waves:   13666
 k-point  57 :   0.0000 0.4286 0.4286  plane waves:   13671
 k-point  58 :   0.2500 0.4286 0.4286  plane waves:   13682
 k-point  59 :  -0.2500-0.4286 0.4286  plane waves:   13682
 k-point  60 :   0.5000 0.4286 0.4286  plane waves:   13690

 maximum and minimum number of plane-waves per node :      2306     2246

 maximum number of plane-waves:     13702
 maximum index in each direction: 
   IXMAX=   21   IYMAX=   13   IZMAX=   12
   IXMIN=  -21   IYMIN=  -13   IZMIN=  -12


 parallel 3D FFT for wavefunctions:
    minimum data exchange during FFTs selected (reduces bandwidth)
 parallel 3D FFT for charge:
    minimum data exchange during FFTs selected (reduces bandwidth)


 total amount of memory used by VASP MPI-rank0   546609. kBytes
=======================================================================

   base      :      30000. kBytes
   nonl-proj :      81254. kBytes
   fftplans  :       3727. kBytes
   grid      :      10440. kBytes
   one-center:        248. kBytes
   wavefun   :     420940. kBytes
 
     INWAV:  cpu time   36.1885: real time   36.5264
 initial charge density was supplied:
 number of electron     337.0000179 magnetization      46.9605123
 keeping initial charge density in first step


--------------------------------------------------------------------------------------------------------


 Maximum index for augmentation-charges          847 (set IRDMAX)


--------------------------------------------------------------------------------------------------------


 First call to EWALD:  gamma=   0.207
 Maximum number of real-space cells 2x 3x 3
 Maximum number of reciprocal cells 4x 2x 2

    FEWALD:  cpu time    0.0030: real time    0.0138


--------------------------------------- Iteration      1(   1)  ---------------------------------------


    POTLOK:  cpu time    0.1600: real time    0.6641
    SETDIJ:  cpu time    0.0310: real time    0.2241
     EDDAV:  cpu time  322.3910: real time  325.2742
 BZINTS: Fermi energy:    7.325714;  337.000000 electrons
         Band energy: 0.135459E+04;  BLOECHL correction:   -0.029985
       DOS:  cpu time    0.8689: real time    1.0114
    --------------------------------------------
      LOOP:  cpu time  323.4508: real time  327.1738

 eigenvalue-minimisations  : 92976
 total energy-change (2. order) :-0.3131773E+03  (-0.1156400E-02)
 number of electron     337.0000179 magnetization      46.9605123
 augmentation part      337.0000179 magnetization      46.9605123

 Free energy of the ion-electron system (eV)
  ---------------------------------------------------
  alpha Z        PSCENC =      1523.38260514
  Ewald energy   TEWEN  =    -21997.38966842
  -Hartree energ DENC   =     -6538.70219930
  -exchange      EXHF   =         0.00000000
  -V(xc)+E(xc)   XCENC  =       232.83158132
  PAW double counting   =     31228.37205093   -31884.49100710
  entropy T*S    EENTRO =         0.00000000
  eigenvalues    EBANDS =      1354.59256801
  atomic energy  EATOM  =     25768.22672671
  Solvation  Ediel_sol  =         0.00000000
  ---------------------------------------------------
  free energy    TOTEN  =      -313.17734271 eV

  energy without entropy =     -313.17734271  energy(sigma->0) =     -313.17734271


--------------------------------------------------------------------------------------------------------




--------------------------------------- Iteration      1(   2)  ---------------------------------------


     EDDAV:  cpu time  331.6866: real time  332.7994
 BZINTS: Fermi energy:    7.325713;  337.000000 electrons
         Band energy: 0.135459E+04;  BLOECHL correction:   -0.029985
       DOS:  cpu time    0.9659: real time    0.9954
    --------------------------------------------
      LOOP:  cpu time  332.6524: real time  333.7948

 eigenvalue-minimisations  : 95624
 total energy-change (2. order) :-0.1722348E-03  (-0.1722434E-03)
 number of electron     337.0000179 magnetization      46.9605123
 augmentation part      337.0000179 magnetization      46.9605123

 Free energy of the ion-electron system (eV)
  ---------------------------------------------------
  alpha Z        PSCENC =      1523.38260514
  Ewald energy   TEWEN  =    -21997.38966842
  -Hartree energ DENC   =     -6538.70219930
  -exchange      EXHF   =         0.00000000
  -V(xc)+E(xc)   XCENC  =       232.83158132
  PAW double counting   =     31228.37205093   -31884.49100710
  entropy T*S    EENTRO =         0.00000000
  eigenvalues    EBANDS =      1354.59239577
  atomic energy  EATOM  =     25768.22672671
  Solvation  Ediel_sol  =         0.00000000
  ---------------------------------------------------
  free energy    TOTEN  =      -313.17751494 eV

  energy without entropy =     -313.17751494  energy(sigma->0) =     -313.17751494


--------------------------------------------------------------------------------------------------------




--------------------------------------- Iteration      1(   3)  ---------------------------------------


     EDDAV:  cpu time  430.9165: real time  432.5650
 BZINTS: Fermi energy:    7.325713;  337.000000 electrons
         Band energy: 0.135459E+04;  BLOECHL correction:   -0.029985
       DOS:  cpu time    0.9639: real time    0.9659
    --------------------------------------------
      LOOP:  cpu time  431.8803: real time  433.5308

 eigenvalue-minimisations  :132088
 total energy-change (2. order) :-0.8071518E-05  (-0.8072622E-05)
 number of electron     337.0000179 magnetization      46.9605123
 augmentation part      337.0000179 magnetization      46.9605123

 Free energy of the ion-electron system (eV)
  ---------------------------------------------------
  alpha Z        PSCENC =      1523.38260514
  Ewald energy   TEWEN  =    -21997.38966842
  -Hartree energ DENC   =     -6538.70219930
  -exchange      EXHF   =         0.00000000
  -V(xc)+E(xc)   XCENC  =       232.83158132
  PAW double counting   =     31228.37205093   -31884.49100710
  entropy T*S    EENTRO =         0.00000000
  eigenvalues    EBANDS =      1354.59238770
  atomic energy  EATOM  =     25768.22672671
  Solvation  Ediel_sol  =         0.00000000
  ---------------------------------------------------
  free energy    TOTEN  =      -313.17752302 eV

  energy without entropy =     -313.17752302  energy(sigma->0) =     -313.17752302


--------------------------------------------------------------------------------------------------------




--------------------------------------- Iteration      1(   4)  ---------------------------------------


     EDDAV:  cpu time  221.6843: real time  222.4212
 BZINTS: Fermi energy:    7.325713;  337.000000 electrons
         Band energy: 0.135459E+04;  BLOECHL correction:   -0.029985
       DOS:  cpu time    0.9459: real time    0.9479
    --------------------------------------------
      LOOP:  cpu time  222.6302: real time  223.3692

 eigenvalue-minimisations  : 54128
 total energy-change (2. order) :-0.5330367E-07  (-0.5286810E-07)
 number of electron     337.0000179 magnetization      46.9605123
 augmentation part      337.0000179 magnetization      46.9605123

 Free energy of the ion-electron system (eV)
  ---------------------------------------------------
  alpha Z        PSCENC =      1523.38260514
  Ewald energy   TEWEN  =    -21997.38966842
  -Hartree energ DENC   =     -6538.70219930
  -exchange      EXHF   =         0.00000000
  -V(xc)+E(xc)   XCENC  =       232.83158132
  PAW double counting   =     31228.37205093   -31884.49100710
  entropy T*S    EENTRO =         0.00000000
  eigenvalues    EBANDS =      1354.59238765
  atomic energy  EATOM  =     25768.22672671
  Solvation  Ediel_sol  =         0.00000000
  ---------------------------------------------------
  free energy    TOTEN  =      -313.17752307 eV

  energy without entropy =     -313.17752307  energy(sigma->0) =     -313.17752307


--------------------------------------------------------------------------------------------------------




--------------------------------------- Iteration      1(   5)  ---------------------------------------


     EDDAV:  cpu time  205.2468: real time  206.1123
 BZINTS: Fermi energy:    7.325713;  337.000000 electrons
         Band energy: 0.135459E+04;  BLOECHL correction:   -0.029985
       DOS:  cpu time    0.9659: real time    0.9718
    --------------------------------------------
      LOOP:  cpu time  206.2127: real time  207.0841

 eigenvalue-minimisations  : 48200
 total energy-change (2. order) :-0.7206836E-08  (-0.7403846E-08)
 number of electron     337.0000179 magnetization      46.9605123
 augmentation part      337.0000179 magnetization      46.9605123

 Free energy of the ion-electron system (eV)
  ---------------------------------------------------
  alpha Z        PSCENC =      1523.38260514
  Ewald energy   TEWEN  =    -21997.38966842
  -Hartree energ DENC   =     -6538.70219930
  -exchange      EXHF   =         0.00000000
  -V(xc)+E(xc)   XCENC  =       232.83158132
  PAW double counting   =     31228.37205093   -31884.49100710
  entropy T*S    EENTRO =         0.00000000
  eigenvalues    EBANDS =      1354.59238764
  atomic energy  EATOM  =     25768.22672671
  Solvation  Ediel_sol  =         0.00000000
  ---------------------------------------------------
  free energy    TOTEN  =      -313.17752308 eV

  energy without entropy =     -313.17752308  energy(sigma->0) =     -313.17752308


--------------------------------------------------------------------------------------------------------




 average (electrostatic) potential at core
  the test charge radii are     1.0210  0.9791  1.1631  1.0103
  (the norm of the test charge is              1.0000)
       1 -42.5538       2 -42.5538       3 -42.5696       4 -42.5696       5 -42.5484
       6 -42.5484       7 -42.5450       8 -42.5450       9 -42.5468      10 -42.5535
      11 -42.5516      12 -42.5543      13 -42.5519      14 -42.5512      15 -42.5440
      16 -84.2779      17 -84.2779      18 -84.2698      19 -84.2698      20 -84.2782
      21 -84.2782      22 -84.2709      23 -84.2709      24 -84.2702      25 -84.2842
      26 -84.2720      27 -84.2727      28 -84.2699      29 -84.2799      30 -84.2856
      31 -84.2731      32 -29.0736      33 -29.0736      34 -29.1036      35 -29.1036
      36 -29.0919      37 -29.0919      38 -29.0750      39 -29.0750      40 -29.0743
      41 -29.0851      42 -29.0779      43 -29.0746      44 -29.0764      45 -29.0735
      46 -29.1052      47 -29.0692      48 -42.2476
 
 
 
 E-fermi :   7.3257     XC(G=0): -12.0810     alpha+bet :-14.0755


 spin component 1

 k-point     1 :       0.0000    0.0000    0.0000
  band No.  band energies     occupation 
      1      -4.6757      1.00000
      2      -3.7416      1.00000
      3      -3.7385      1.00000
      4      -2.5644      1.00000
      5      -2.5640      1.00000
      6      -2.4970      1.00000
      7      -2.3717      1.00000
      8      -2.2787      1.00000
      9      -2.2750      1.00000
     10      -2.0743      1.00000
     11      -2.0542      1.00000
     12      -2.0532      1.00000
     13      -2.0526      1.00000
     14      -2.0492      1.00000
     15      -1.5418      1.00000
     16      -1.5365      1.00000
     17       0.8095      1.00000
     18       0.8131      1.00000
     19       0.8153      1.00000
     20       1.3071      1.00000
     21       1.3133      1.00000
     22       1.3744      1.00000
     23       1.4424      1.00000
     24       1.4429      1.00000
     25       1.4468      1.00000
     26       1.4483      1.00000
     27       1.8374      1.00000
     28       1.8426      1.00000
     29       2.1860      1.00000
     30       2.4082      1.00000
     31       2.6607      1.00000
     32       2.6625      1.00000
     33       2.9121      1.00000
     34       2.9158      1.00000
     35       2.9423      1.00000
     36       3.0831      1.00000
     37       3.0843      1.00000
     38       3.0877      1.00000
     39       3.0891      1.00000
     40       3.1549      1.00000
     41       3.1571      1.00000
     42       3.2752      1.00000
     43       3.3014      1.00000
     44       3.3044      1.00000
     45       3.3266      1.00000
     46       3.3275      1.00000
     47       3.3288      1.00000
     48       3.4469      1.00000
     49       3.4712      1.00000
     50       3.4925      1.00000
     51       3.5515      1.00000
     52       3.5597      1.00000
     53       3.6480      1.00000
     54       3.6534      1.00000
     55       3.6539      1.00000
     56       3.6564      1.00000
     57       3.7176      1.00000
     58       3.7230      1.00000
[...]
  n-local  -254.43324  -233.11674  -237.45447    -0.12935    -0.86363     0.51705
  augment  3343.26581  3324.79065  3316.10587     0.00000     0.00000    -0.80624
  Kinetic  2888.74240  2854.99377  2867.25083    -0.08334     0.09511    -1.04241
  Fock        0.00000     0.00000     0.00000     0.00000     0.00000     0.00000
  -------------------------------------------------------------------------------------
  Total      -2.53455     7.58392    -4.84011     0.00000     0.00000    -0.10485
  in kB      -6.44104    19.27302   -12.30017     0.00000     0.00000    -0.26646
  external pressure =        0.18 kB  Pullay stress =        0.00 kB


 VOLUME and BASIS-vectors are now :
 -----------------------------------------------------------------------------
  energy-cutoff  :      450.00
  volume of cell :      630.46
      direct lattice vectors                 reciprocal lattice vectors
    12.035889782  0.000000000  0.000000000     0.083084842  0.000000000  0.000000000
     0.000000000  7.435625475  0.000000000     0.000000000  0.134487677  0.000000000
     0.000000000  0.000000000  7.044641858     0.000000000  0.000000000  0.141951858

  length of vectors
    12.035889782  7.435625475  7.044641858     0.083084842  0.134487677  0.141951858


 FORCES acting on ions
    electron-ion (+dipol)            ewald-force                    non-local-force                 convergence-correction
 -----------------------------------------------------------------------------------------------
   0.105E+02 0.108E+01 0.357E+02   -.105E+02 -.101E+01 -.355E+02   -.580E+00 -.798E-02 0.163E+00   -.782E-01 -.476E-01 -.298E-01
   0.105E+02 -.108E+01 0.357E+02   -.105E+02 0.101E+01 -.355E+02   -.580E+00 0.798E-02 0.163E+00   -.782E-01 0.476E-01 -.298E-01
   0.687E+01 0.498E+01 -.306E+02   -.699E+01 -.497E+01 0.306E+02   -.612E+00 0.747E-01 -.654E-01   0.836E-01 -.115E+00 -.197E+00
   0.687E+01 -.498E+01 -.306E+02   -.699E+01 0.497E+01 0.306E+02   -.612E+00 -.747E-01 -.654E-01   0.836E-01 0.115E+00 -.197E+00
   0.140E+01 0.131E+01 0.358E+02   -.156E+01 -.128E+01 -.355E+02   -.637E+00 0.339E-01 0.159E+00   0.147E+00 -.562E-01 -.865E-01
   0.140E+01 -.131E+01 0.358E+02   -.156E+01 0.128E+01 -.355E+02   -.637E+00 -.339E-01 0.159E+00   0.147E+00 0.562E-01 -.865E-01
   0.588E+01 0.303E+00 -.356E+02   -.579E+01 -.277E+00 0.354E+02   -.607E+00 -.306E-02 -.146E+00   -.125E+00 -.253E-01 0.586E-01
   0.588E+01 -.303E+00 -.356E+02   -.579E+01 0.277E+00 0.354E+02   -.607E+00 0.306E-02 -.146E+00   -.125E+00 0.253E-01 0.586E-01
   -.595E+01 -.956E-15 0.357E+02   0.615E+01 -.284E-13 -.355E+02   0.601E+00 0.000E+00 0.148E+00   -.163E+00 0.189E-11 -.160E-02
   -.145E+01 0.157E-12 -.363E+02   0.150E+01 -.281E-13 0.362E+02   0.659E+00 0.000E+00 -.194E+00   -.956E-01 -.158E-11 0.112E-01
   -.624E+01 -.774E-13 0.355E+02   0.615E+01 -.421E-13 -.355E+02   0.645E+00 0.000E+00 0.166E+00   0.129E+00 0.976E-12 0.972E-01
   -.109E+02 -.217E-12 -.364E+02   0.108E+02 -.272E-13 0.362E+02   0.583E+00 0.000E+00 -.161E+00   0.142E+00 0.137E-11 0.424E-01
   -.597E+01 0.244E-12 0.357E+02   0.615E+01 -.139E-13 -.355E+02   0.616E+00 0.000E+00 0.154E+00   -.145E+00 -.294E-12 -.122E-01
   0.414E+01 0.122E-11 -.381E+02   -.373E+01 -.230E-13 0.378E+02   0.702E+00 0.000E+00 -.205E+00   -.303E+00 -.766E-12 0.824E-01
   -.163E+02 0.129E-11 -.381E+02   0.160E+02 -.140E-13 0.378E+02   0.569E+00 0.000E+00 -.176E+00   0.280E+00 -.666E-12 0.123E+00
   0.788E+02 0.157E+01 -.396E+02   -.782E+02 -.148E+01 0.403E+02   -.526E-01 -.146E-01 -.274E+00   -.323E+00 -.802E-01 0.474E-01
   0.788E+02 -.157E+01 -.396E+02   -.782E+02 0.148E+01 0.403E+02   -.526E-01 0.146E-01 -.274E+00   -.323E+00 0.802E-01 0.474E-01
   0.794E+02 0.989E+01 0.309E+02   -.790E+02 -.958E+01 -.320E+02   -.868E-01 0.296E-01 0.256E+00   -.544E-01 -.321E+00 0.271E+00
   0.794E+02 -.989E+01 0.309E+02   -.790E+02 0.958E+01 -.320E+02   -.868E-01 -.296E-01 0.256E+00   -.544E-01 0.321E+00 0.271E+00
   0.583E+02 0.889E+01 -.361E+02   -.584E+02 -.858E+01 0.368E+02   -.193E+00 0.367E-01 -.262E+00   0.544E+00 -.355E+00 -.189E-01
   0.583E+02 -.889E+01 -.361E+02   -.584E+02 0.858E+01 0.368E+02   -.193E+00 -.367E-01 -.262E+00   0.544E+00 0.355E+00 -.189E-01
   0.695E+02 0.644E+00 0.399E+02   -.690E+02 -.569E+00 -.406E+02   -.921E-01 -.695E-02 0.270E+00   -.182E+00 -.685E-01 -.107E+00
   0.695E+02 -.644E+00 0.399E+02   -.690E+02 0.569E+00 -.406E+02   -.921E-01 0.695E-02 0.270E+00   -.182E+00 0.685E-01 -.107E+00
   -.701E+02 0.858E-13 -.404E+02   0.699E+02 0.588E-13 0.412E+02   0.116E+00 0.000E+00 -.272E+00   -.205E+00 0.297E-11 -.796E-01
   -.656E+02 0.950E-13 0.421E+02   0.653E+02 0.371E-13 -.429E+02   0.188E+00 0.000E+00 0.295E+00   -.148E+00 -.136E-11 -.155E-01
   -.751E+02 0.219E-12 -.423E+02   0.745E+02 -.437E-13 0.432E+02   0.128E+00 0.000E+00 -.279E+00   0.309E+00 0.371E-11 -.391E-01
   -.773E+02 0.148E-13 0.409E+02   0.769E+02 0.263E-13 -.418E+02   0.323E-01 0.000E+00 0.295E+00   0.129E+00 0.650E-11 0.751E-01
   -.696E+02 0.114E-11 -.406E+02   0.694E+02 0.595E-13 0.414E+02   0.103E+00 0.000E+00 -.259E+00   -.228E+00 0.169E-11 -.415E-01
   -.553E+02 -.165E-11 0.491E+02   0.553E+02 0.376E-13 -.496E+02   0.187E+00 0.000E+00 0.315E+00   -.392E+00 0.383E-11 -.272E+00
   -.790E+02 0.251E-11 -.524E+02   0.783E+02 -.233E-13 0.528E+02   0.272E-01 0.000E+00 -.234E+00   0.353E+00 -.939E-11 0.257E+00
   -.803E+02 -.516E-11 0.420E+02   0.797E+02 0.418E-13 -.427E+02   0.119E+00 0.000E+00 0.251E+00   0.220E+00 -.662E-11 -.775E-03
   -.315E+02 0.355E+00 0.146E+02   0.320E+02 -.327E+00 -.142E+02   -.748E+00 -.874E-05 -.692E+00   -.962E-01 -.305E-01 -.351E-01
   -.315E+02 -.355E+00 0.146E+02   0.320E+02 0.327E+00 -.142E+02   -.748E+00 0.874E-05 -.692E+00   -.962E-01 0.305E-01 -.351E-01
   -.268E+02 0.603E+01 -.134E+02   0.272E+02 -.584E+01 0.132E+02   -.555E+00 0.208E+00 0.706E+00   -.147E+00 -.183E+00 -.711E-02
   -.268E+02 -.603E+01 -.134E+02   0.272E+02 0.584E+01 0.132E+02   -.555E+00 -.208E+00 0.706E+00   -.147E+00 0.183E+00 -.711E-02
   -.380E+02 0.437E+01 0.115E+02   0.381E+02 -.428E+01 -.113E+02   -.847E+00 0.104E+00 -.772E+00   0.202E+00 -.124E+00 0.106E+00
   -.380E+02 -.437E+01 0.115E+02   0.381E+02 0.428E+01 -.113E+02   -.847E+00 -.104E+00 -.772E+00   0.202E+00 0.124E+00 0.106E+00
   -.354E+02 0.486E+00 -.147E+02   0.357E+02 -.433E+00 0.144E+02   -.759E+00 0.199E-02 0.688E+00   0.274E-01 -.440E-01 0.394E-01
   -.354E+02 -.486E+00 -.147E+02   0.357E+02 0.433E+00 0.144E+02   -.759E+00 -.199E-02 0.688E+00   0.274E-01 0.440E-01 0.394E-01
   0.347E+02 0.549E-13 0.149E+02   -.350E+02 -.403E-14 -.146E+02   0.760E+00 0.000E+00 -.683E+00   -.933E-01 0.337E-12 0.368E-01
   0.352E+02 -.238E-12 -.151E+02   -.355E+02 0.144E-13 0.148E+02   0.751E+00 0.000E+00 0.684E+00   -.122E-01 -.180E-12 -.297E-01
   0.313E+02 -.960E-13 0.158E+02   -.317E+02 0.418E-13 -.155E+02   0.749E+00 0.000E+00 -.691E+00   0.124E+00 0.268E-11 -.297E-01
   0.320E+02 -.139E-13 -.148E+02   -.322E+02 -.114E-13 0.145E+02   0.744E+00 0.000E+00 0.686E+00   -.501E-01 0.147E-11 -.387E-01
   0.352E+02 0.721E-13 0.150E+02   -.354E+02 -.518E-14 -.148E+02   0.759E+00 0.000E+00 -.687E+00   -.106E+00 0.951E-13 0.280E-01
   0.365E+02 -.108E-11 -.161E+02   -.369E+02 0.112E-13 0.158E+02   0.750E+00 0.000E+00 0.699E+00   -.208E-01 -.474E-12 0.206E-01
   0.278E+02 0.149E-11 0.209E+02   -.282E+02 0.415E-13 -.202E+02   0.565E+00 0.000E+00 -.474E+00   0.190E+00 -.180E-11 -.210E+00
   0.315E+02 0.814E-12 -.149E+02   -.318E+02 -.128E-13 0.146E+02   0.748E+00 0.000E+00 0.695E+00   -.290E-01 -.344E-12 -.289E-01
   -.717E+01 -.222E-11 0.407E+02   0.703E+01 0.768E-13 -.406E+02   0.538E+00 0.000E+00 -.532E-01   0.137E+00 0.376E-11 0.758E-01
 -----------------------------------------------------------------------------------------------
   -.115E+00 0.432E-10 -.203E+00   -.551E-13 -.453E-14 0.128E-12   0.102E+00 0.000E+00 0.767E-01   0.187E-01 -.130E-10 0.133E+00
 
 
 POSITION                                       TOTAL-FORCE (eV/Angst)
 -----------------------------------------------------------------------------------
      2.91148      1.85891      1.25606        -0.667495      0.013223      0.275082
      2.91148      5.57672      1.25606        -0.667495     -0.013223      0.275082
      5.92045      1.85891      2.26626        -0.645519     -0.028197     -0.252823
      5.92045      5.57672      2.26626        -0.645519      0.028197     -0.252823
      8.92943      1.85891      1.25606        -0.641003      0.006723      0.276978
      8.92943      5.57672      1.25606        -0.641003     -0.006723      0.276978
     11.93840      1.85891      2.26626        -0.637047     -0.002404     -0.283721
     11.93840      5.57672      2.26626        -0.637047      0.002404     -0.283721
      0.09749      0.00000      4.77838         0.646600      0.000000      0.281902
      3.10646      0.00000      5.78858         0.611754      0.000000     -0.269214
      6.11544      0.00000      4.77838         0.692863      0.000000      0.251065
      9.12441      0.00000      5.78858         0.669962      0.000000     -0.276107
      0.09749      3.71781      4.77838         0.655226      0.000000      0.290269
      3.10646      3.71781      5.78858         0.804923      0.000000     -0.333487
      9.12441      3.71781      5.78858         0.610623      0.000000     -0.309196
      2.12674      1.85891      3.89780         0.274628     -0.001224      0.489833
      2.12674      5.57672      3.89780         0.274628      0.001224      0.489833
      5.13571      1.85891      6.66916         0.249292      0.022596     -0.510192
      5.13571      5.57672      6.66916         0.249292     -0.022596     -0.510192
      8.14469      1.85891      3.89780         0.203319     -0.007509      0.465316
      8.14469      5.57672      3.89780         0.203319      0.007509      0.465316
     11.15366      1.85891      6.66916         0.261554     -0.000599     -0.488114
     11.15366      5.57672      6.66916         0.261554      0.000599     -0.488114
      0.88223      0.00000      0.37548        -0.252691      0.000000      0.492254
      3.89120      0.00000      3.14684        -0.247567      0.000000     -0.502426
      6.90018      0.00000      0.37548        -0.207080      0.000000      0.496891
      9.90915      0.00000      3.14684        -0.271537      0.000000     -0.479217
      0.88223      3.71781      0.37548        -0.260829      0.000000      0.492294
      3.89120      3.71781      3.14684        -0.201821      0.000000     -0.459748
      6.90018      3.71781      0.37548        -0.338848      0.000000      0.409405
      9.90915      3.71781      3.14684        -0.272090      0.000000     -0.492466
      1.50750      1.85891      6.18731        -0.427944     -0.002835     -0.387149
      1.50750      5.57672      6.18731        -0.427944      0.002835     -0.387149
      4.51647      1.85891      4.37965        -0.289996      0.215944      0.466394
      4.51647      5.57672      4.37965        -0.289996     -0.215944      0.466394
      7.52544      1.85891      6.18731        -0.529561      0.076474     -0.453828
      7.52544      5.57672      6.18731        -0.529561     -0.076474     -0.453828
     10.53441      1.85891      4.37965        -0.436041      0.010789      0.402718
     10.53441      5.57672      4.37965        -0.436041     -0.010789      0.402718
      1.50148      0.00000      2.66499         0.409819      0.000000     -0.408139
      4.51045      0.00000      0.85733         0.463289      0.000000      0.360263
      7.51942      0.00000      2.66499         0.422968      0.000000     -0.397986
     10.52839      0.00000      0.85733         0.443452      0.000000      0.398622
      1.50148      3.71781      2.66499         0.429653      0.000000     -0.400420
      4.51045      3.71781      0.85733         0.411561      0.000000      0.393262
      7.51942      3.71781      2.66499         0.379784      0.000000     -0.045246
     10.52839      3.71781      0.85733         0.431341      0.000000      0.399175
      6.11544      3.71781      4.77838         0.540270      0.000000      0.107263
 -----------------------------------------------------------------------------------
    total drift:                                0.005443      0.000000      0.006462


--------------------------------------------------------------------------------------------------------



  FREE ENERGIE OF THE ION-ELECTRON SYSTEM (eV)
  ---------------------------------------------------
  free  energy   TOTEN  =      -313.17752308 eV

  energy  without entropy=     -313.17752308  energy(sigma->0) =     -313.17752308
 


--------------------------------------------------------------------------------------------------------


    POTLOK:  cpu time    0.1830: real time    0.2500


--------------------------------------------------------------------------------------------------------


     LOOP+:  cpu time 1830.5137: real time 1840.9825
 -----------------------------------------------------------------------------
|                                                                             |
|           W    W    AA    RRRRR   N    N  II  N    N   GGGG   !!!           |
|           W    W   A  A   R    R  NN   N  II  NN   N  G    G  !!!           |
|           W    W  A    A  R    R  N N  N  II  N N  N  G       !!!           |
|           W WW W  AAAAAA  RRRRR   N  N N  II  N  N N  G  GGG   !            |
|           WW  WW  A    A  R   R   N   NN  II  N   NN  G    G                |
|           W    W  A    A  R    R  N    N  II  N    N   GGGG   !!!           |
|                                                                             |
|     Tetrahedron method does not include variations of the Fermi             |
|     occupations, so forces and stress will be inaccurate. We suggest        |
|     using a different smearing scheme ISMEAR = 1 or 2 for metals in         |
|     relaxations.                                                            |
|                                                                             |
 -----------------------------------------------------------------------------

    4ORBIT:  cpu time    0.0000: real time    0.0000
 


 total charge     
 
# of ion       s       p       d       tot
------------------------------------------
    1        0.261   0.297   5.068   5.625
    2        0.261   0.297   5.068   5.625
    3        0.261   0.296   5.067   5.624
    4        0.261   0.296   5.067   5.624
    5        0.261   0.296   5.067   5.624
    6        0.261   0.296   5.067   5.624
    7        0.261   0.297   5.068   5.626
    8        0.261   0.297   5.068   5.626
    9        0.261   0.297   5.065   5.622
   10        0.261   0.297   5.066   5.623
   11        0.262   0.297   5.067   5.626
   12        0.261   0.297   5.061   5.618
   13        0.261   0.297   5.065   5.622
   14        0.260   0.296   5.067   5.624
   15        0.260   0.296   5.065   5.622
   16        0.453   0.537   8.439   9.429
   17        0.453   0.537   8.439   9.429
   18        0.453   0.533   8.438   9.423
   19        0.453   0.533   8.438   9.423
   20        0.452   0.534   8.439   9.426
   21        0.452   0.534   8.439   9.426
   22        0.453   0.537   8.438   9.428
   23        0.453   0.537   8.438   9.428
   24        0.453   0.537   8.441   9.431
   25        0.453   0.535   8.441   9.429
   26        0.453   0.537   8.439   9.430
   27        0.453   0.536   8.439   9.428
   28        0.453   0.537   8.441   9.431
   29        0.452   0.534   8.439   9.426
   30        0.453   0.533   8.435   9.421
   31        0.454   0.537   8.439   9.430
   32        1.105   1.351   0.133   2.589
   33        1.105   1.351   0.133   2.589
   34        1.104   1.339   0.134   2.577
   35        1.104   1.339   0.134   2.577
   36        1.105   1.343   0.134   2.582
   37        1.105   1.343   0.134   2.582
   38        1.105   1.350   0.133   2.588
   39        1.105   1.350   0.133   2.588
   40        1.105   1.351   0.133   2.589
   41        1.105   1.350   0.133   2.589
   42        1.105   1.349   0.134   2.588
   43        1.105   1.350   0.133   2.588
   44        1.105   1.350   0.133   2.589
   45        1.105   1.351   0.133   2.589
   46        1.105   1.339   0.134   2.578
   47        1.105   1.350   0.133   2.588
   48        0.330   0.383   6.292   7.005
--------------------------------------------------
tot         29.170  34.955 219.442 283.567
 


 magnetization (x)
 
# of ion       s       p       d       tot
------------------------------------------
    1        0.018   0.011   2.992   3.021
    2        0.018   0.011   2.992   3.021
    3        0.019   0.012   3.000   3.031
    4        0.019   0.012   3.000   3.031
    5        0.018   0.011   2.988   3.017
    6        0.018   0.011   2.988   3.017
    7        0.018   0.010   2.986   3.015
    8        0.018   0.010   2.986   3.015
    9        0.018   0.010   2.992   3.020
   10        0.019   0.011   2.993   3.022
   11        0.018   0.011   2.978   3.007
   12        0.018   0.011   2.999   3.028
   13        0.018   0.010   2.996   3.025
   14        0.019   0.011   2.985   3.014
   15        0.019   0.011   2.980   3.009
   16       -0.019  -0.042   0.128   0.067
   17       -0.019  -0.042   0.128   0.067
   18       -0.018  -0.040   0.115   0.057
   19       -0.018  -0.040   0.115   0.057
   20       -0.018  -0.040   0.123   0.065
   21       -0.018  -0.040   0.123   0.065
   22       -0.019  -0.042   0.126   0.064
   23       -0.019  -0.042   0.126   0.064
   24       -0.019  -0.042   0.120   0.059
   25       -0.018  -0.040   0.127   0.069
   26       -0.019  -0.043   0.123   0.061
   27       -0.019  -0.041   0.127   0.067
   28       -0.019  -0.042   0.121   0.060
   29       -0.018  -0.041   0.114   0.055
   30       -0.018  -0.039   0.123   0.066
   31       -0.020  -0.043   0.126   0.063
   32       -0.016  -0.118   0.002  -0.131
   33       -0.016  -0.118   0.002  -0.131
   34       -0.014  -0.108   0.000  -0.121
   35       -0.014  -0.108   0.000  -0.121
   36       -0.015  -0.110   0.001  -0.123
   37       -0.015  -0.110   0.001  -0.123
   38       -0.016  -0.117   0.002  -0.131
   39       -0.016  -0.117   0.002  -0.131
   40       -0.016  -0.118   0.002  -0.132
   41       -0.016  -0.117   0.003  -0.130
   42       -0.016  -0.116   0.002  -0.130
   43       -0.016  -0.117   0.002  -0.131
   44       -0.016  -0.118   0.002  -0.131
   45       -0.017  -0.117   0.003  -0.131
   46       -0.013  -0.108   0.000  -0.122
   47       -0.016  -0.118   0.002  -0.132
   48        0.010  -0.003   2.238   2.245
--------------------------------------------------
tot         -0.260  -2.338  49.091  46.492
 
 BZINTS: Fermi energy:    7.325713;  337.000000 electrons
         Band energy: 0.135459E+04;  BLOECHL correction:   -0.029985

 total amount of memory used by VASP MPI-rank0   546609. kBytes
=======================================================================

   base      :      30000. kBytes
   nonl-proj :      81254. kBytes
   fftplans  :       3727. kBytes
   grid      :      10440. kBytes
   one-center:        248. kBytes
   wavefun   :     420940. kBytes
 
  
  
 General timing and accounting informations for this job:
 ========================================================
  
                  Total CPU time used (sec):     2130.403
                            User time (sec):     2008.515
                          System time (sec):      121.888
                         Elapsed time (sec):     2154.125
  
                   Maximum memory used (kb):      683264.
                   Average memory used (kb):           0.
  
                          Minor page faults:        18285
                          Major page faults:          650
                 Voluntary context switches:         6813
