 running on   24 total cores
 distrk:  each k-point on   24 cores,    1 groups
 distr:  one band on    6 cores,    4 groups
 using from now: INCAR     
 vasp.6.1.1 19Jun20 (build Nov 30 2020 11:51:22) complex                        
  
 POSCAR found type information on POSCAR MnNiGeFe
 POSCAR found :  4 types and      48 ions
 scaLAPACK will be used
 -----------------------------------------------------------------------------
|                                                                             |
|               ----> ADVICE to this user running VASP <----                  |
|                                                                             |
|     You have a (more or less) 'large supercell' and for larger cells it     |
|     might be more efficient to use real-space projection operators.         |
|     Therefore, try LREAL= Auto in the INCAR file.                           |
|     Mind: For very accurate calculation, you might also keep the            |
|     reciprocal projection scheme (i.e. LREAL=.FALSE.).                      |
|                                                                             |
 -----------------------------------------------------------------------------

 LDA part: xc-table for Pade appr. of Perdew
 POSCAR, INCAR and KPOINTS ok, starting setup
 FFT: planning ...
 WAVECAR not read
 entering main loop
       N       E                     dE             d eps       ncg     rms          rms(c)
DAV:   1     0.276519297520E+04    0.27652E+04   -0.10971E+05 86400   0.103E+03
DAV:   2     0.158955951586E+03   -0.26062E+04   -0.23239E+04 86400   0.262E+02
DAV:   3    -0.271238773725E+03   -0.43019E+03   -0.35536E+03 86584   0.122E+02
DAV:   4    -0.301481155894E+03   -0.30242E+02   -0.29042E+02106304   0.383E+01
DAV:   5    -0.302256561945E+03   -0.77541E+00   -0.77376E+00103456   0.637E+00    0.100E+02
DAV:   6    -0.389753862715E+03   -0.87497E+02   -0.24717E+02109296   0.114E+02    0.120E+02
DAV:   7    -0.303988621986E+03    0.85765E+02   -0.18157E+02106464   0.854E+01    0.672E+01
DAV:   8    -0.337710498157E+03   -0.33722E+02   -0.57630E+01117224   0.500E+01    0.970E+01
DAV:   9    -0.319809210431E+03    0.17901E+02   -0.41701E+01124712   0.389E+01    0.494E+01
DAV:  10    -0.321975688148E+03   -0.21665E+01   -0.39515E+01118536   0.599E+01    0.723E+01
DAV:  11    -0.300802729734E+03    0.21173E+02   -0.21939E+01133352   0.443E+01    0.287E+01
DAV:  12    -0.308552996776E+03   -0.77503E+01   -0.95907E+00123192   0.322E+01    0.334E+01
DAV:  13    -0.308066815060E+03    0.48618E+00   -0.65086E+00126728   0.249E+01    0.159E+01
DAV:  14    -0.314035641380E+03   -0.59688E+01   -0.47529E+00133296   0.223E+01    0.239E+01
DAV:  15    -0.312650167255E+03    0.13855E+01   -0.39624E+00122904   0.177E+01    0.898E+00
DAV:  16    -0.313111325371E+03   -0.46116E+00   -0.13635E+00120608   0.105E+01    0.863E+00
DAV:  17    -0.313040932634E+03    0.70393E-01   -0.92125E-01111872   0.833E+00    0.473E+00
DAV:  18    -0.313157511614E+03   -0.11658E+00   -0.40227E-01111544   0.463E+00    0.367E+00
DAV:  19    -0.313149939402E+03    0.75722E-02   -0.21955E-01112984   0.405E+00    0.269E+00
DAV:  20    -0.313134978227E+03    0.14961E-01   -0.12606E-01113168   0.275E+00    0.169E+00
DAV:  21    -0.313143461343E+03   -0.84831E-02   -0.57609E-02114728   0.129E+00    0.132E+00
DAV:  22    -0.313147754569E+03   -0.42932E-02   -0.13271E-02113400   0.949E-01    0.132E+00
DAV:  23    -0.313148294789E+03   -0.54022E-03   -0.66339E-03116344   0.806E-01    0.116E+00
DAV:  24    -0.313148683692E+03   -0.38890E-03   -0.43510E-03147440   0.430E-01    0.101E+00
DAV:  25    -0.313147430181E+03    0.12535E-02   -0.29571E-03121320   0.555E-01    0.762E-01
DAV:  26    -0.313145493852E+03    0.19363E-02   -0.21167E-03139608   0.406E-01    0.472E-01
DAV:  27    -0.313146071546E+03   -0.57769E-03   -0.79598E-04134664   0.176E-01    0.362E-01
DAV:  28    -0.313146238323E+03   -0.16678E-03   -0.20971E-04121144   0.148E-01    0.318E-01
DAV:  29    -0.313146188988E+03    0.49334E-04   -0.12395E-04132680   0.794E-02    0.220E-01
DAV:  30    -0.313146216598E+03   -0.27609E-04   -0.60404E-05143880   0.674E-02    0.164E-01
DAV:  31    -0.313146232240E+03   -0.15642E-04   -0.31060E-05134368   0.626E-02    0.114E-01
DAV:  32    -0.313146249432E+03   -0.17193E-04   -0.28147E-05144416   0.296E-02    0.747E-02
DAV:  33    -0.313146250473E+03   -0.10404E-05   -0.15730E-05110704   0.246E-02    0.607E-02
DAV:  34    -0.313146252269E+03   -0.17963E-05   -0.45733E-06 91640   0.164E-02    0.419E-02
DAV:  35    -0.313146254914E+03   -0.26453E-05   -0.16692E-06 76200   0.117E-02    0.289E-02
DAV:  36    -0.313146255237E+03   -0.32265E-06   -0.22400E-06 61560   0.946E-03
   1 F= -.31314626E+03 E0= -.31317240E+03  d E =0.784244E-01  mag=    47.4197
