 vasp.6.1.1 19Jun20 (build Nov 30 2020 11:51:22) complex                        
  
 executed on             LinuxIFC date 2005.10.19  08:55:14
 running on   24 total cores
 distrk:  each k-point on   24 cores,    1 groups
 distr:  one band on NCORE=   6 cores,    4 groups


--------------------------------------------------------------------------------------------------------


 INCAR:
 POTCAR:    PAW_PBE Mn 06Sep2000                  
 POTCAR:    PAW_PBE Ni 02Aug2007                  
 POTCAR:    PAW_PBE Ge 05Jan2001                  
 POTCAR:    PAW_PBE Fe 06Sep2000                  
 POTCAR:    PAW_PBE Mn 06Sep2000                  
   SHA256 =  791c87526310ff945dc83749a51ee60ee299d345ff72743aeb14609b9ed68bfc Mn/POTCAR             
   COPYR  = (c) Copyright 06Sep2000 Georg Kresse                                                    
   COPYR  = This file is part of the software VASP. Any use, copying, and all other rights are regul
   COPYR  = If you do not have a valid VASP license, you may not use, copy or distribute this file. 
   VRHFIN =Mn: d6 s1                                                                                
   LEXCH  = PE                                                                                      
   EATOM  =   416.7541 eV,   30.6306 Ry                                                             
                                                                                                    
   TITEL  = PAW_PBE Mn 06Sep2000                                                                    
   LULTRA =        F    use ultrasoft PP ?                                                          
   IUNSCR =        1    unscreen: 0-lin 1-nonlin 2-no                                               
   RPACOR =    2.000    partial core radius                                                         
   POMASS =   54.938; ZVAL   =    7.000    mass and valenz                                          
   RCORE  =    2.300    outmost cutoff radius                                                       
   RWIGS  =    2.500; RWIGS  =    1.323    wigner-seitz radius (au A)                               
   ENMAX  =  269.864; ENMIN  =  202.398 eV                                                          
   RCLOC  =    1.725    cutoff for local pot                                                        
   LCOR   =        T    correct aug charges                                                         
   LPAW   =        T    paw PP                                                                      
   EAUG   =  500.711                                                                                
   DEXC   =    0.000                                                                                
   RMAX   =    2.343    core radius for proj-oper                                                   
   RAUG   =    1.300    factor for augmentation sphere                                              
   RDEP   =    2.338    radius for radial grids                                                     
   RDEPT  =    1.911    core radius for aug-charge                                                  
                                                                                                    
   Atomic configuration                                                                             
    9 entries                                                                                       
     n  l   j            E        occ.                                                              
     1  0  0.50     -6424.8288   2.0000                                                             
     2  0  0.50      -739.1154   2.0000                                                             
     2  1  1.50      -625.3949   6.0000                                                             
     3  0  0.50       -81.6100   2.0000                                                             
     3  1  1.50       -50.4667   6.0000                                                             
     3  2  2.50        -3.3745   6.0000                                                             
     4  0  0.50        -4.1331   1.0000                                                             
     4  1  0.50        -4.0817   0.0000                                                             
     4  3  2.50        -1.3606   0.0000                                                             
   Description                                                                                      
     l       E           TYP  RCUT    TYP  RCUT                                                     
     2     -3.3744664     23  2.300                                                                 
     2     -4.7350490     23  2.300                                                                 
     0     -4.1331408     23  2.300                                                                 
     0      7.6656614     23  2.300                                                                 
     1     -2.7211652     23  2.300                                                                 
     1     20.4087390     23  2.300                                                                 
  local pseudopotential read in
  partial core-charges read in
  partial kinetic energy density read in
  atomic valenz-charges read in
  non local Contribution for L=           2  read in
    real space projection operators read in
  non local Contribution for L=           2  read in
    real space projection operators read in
  non local Contribution for L=           0  read in
    real space projection operators read in
  non local Contribution for L=           0  read in
    real space projection operators read in
  non local Contribution for L=           1  read in
    real space projection operators read in
  non local Contribution for L=           1  read in
    real space projection operators read in
    PAW grid and wavefunctions read in
 
   number of l-projection  operators is LMAX  =           6
   number of lm-projection operators is LMMAX =          18
 
 POTCAR:    PAW_PBE Ni 02Aug2007                  
   SHA256 =  0534bc51ca8003dfef23f56753fef9fdd3e22eac8d719fccacb59f3e6b7a69c7 Ni/POTCAR             
   COPYR  = (c) Copyright 02Aug2007 Georg Kresse                                                    
   COPYR  = This file is part of the software VASP. Any use, copying, and all other rights are regul
   COPYR  = If you do not have a valid VASP license, you may not use, copy or distribute this file. 
   VRHFIN =Ni:                                                                                      
   LEXCH  = PE                                                                                      
   EATOM  =  1077.6739 eV,   79.2068 Ry                                                             
                                                                                                    
   TITEL  = PAW_PBE Ni 02Aug2007                                                                    
   LULTRA =        F    use ultrasoft PP ?                                                          
   IUNSCR =        1    unscreen: 0-lin 1-nonlin 2-no                                               
   RPACOR =    2.000    partial core radius                                                         
   POMASS =   58.690; ZVAL   =   10.000    mass and valenz                                          
   RCORE  =    2.300    outmost cutoff radius                                                       
   RWIGS  =    2.430; RWIGS  =    1.286    wigner-seitz radius (au A)                               
   ENMAX  =  269.532; ENMIN  =  202.149 eV                                                          
   RCLOC  =    1.201    cutoff for local pot                                                        
   LCOR   =        T    correct aug charges                                                         
   LPAW   =        T    paw PP                                                                      
   EAUG   =  544.565                                                                                
   DEXC   =    0.000                                                                                
   RMAX   =    2.357    core radius for proj-oper                                                   
   RAUG   =    1.300    factor for augmentation sphere                                              
   RDEP   =    2.390    radius for radial grids                                                     
   RDEPT  =    1.838    core radius for aug-charge                                                  
                                                                                                    
   Atomic configuration                                                                             
    9 entries                                                                                       
     n  l   j            E        occ.                                                              
     1  0  0.50     -8206.4253   2.0000                                                             
     2  0  0.50      -976.1748   2.0000                                                             
     2  1  1.50      -839.0571   6.0000                                                             
     3  0  0.50      -105.9991   2.0000                                                             
     3  1  1.50       -66.4603   6.0000                                                             
     3  2  2.50        -4.6458   9.0000                                                             
     4  0  0.50        -4.4926   1.0000                                                             
     4  1  1.50        -4.0817   0.0000                                                             
     4  3  2.50        -1.3606   0.0000                                                             
   Description                                                                                      
     l       E           TYP  RCUT    TYP  RCUT                                                     
     2     -4.6457903     23  2.300                                                                 
     2     -6.0063729     23  2.300                                                                 
     0     -4.4925590     23  2.300                                                                 
     0      5.0102601     23  2.300                                                                 
     1     -2.7211652     23  2.300                                                                 
     1     16.5183231     23  2.300                                                                 
  local pseudopotential read in
  partial core-charges read in
  partial kinetic energy density read in
  atomic valenz-charges read in
  non local Contribution for L=           2  read in
    real space projection operators read in
  non local Contribution for L=           2  read in
    real space projection operators read in
  non local Contribution for L=           0  read in
    real space projection operators read in
  non local Contribution for L=           0  read in
    real space projection operators read in
  non local Contribution for L=           1  read in
    real space projection operators read in
  non local Contribution for L=           1  read in
    real space projection operators read in
    PAW grid and wavefunctions read in
 
   number of l-projection  operators is LMAX  =           6
   number of lm-projection operators is LMMAX =          18
 
 POTCAR:    PAW_PBE Ge 05Jan2001                  
   SHA256 =  7ff11deedcda39f1950abeda971a84a1f98a719a97bc9679a0df455c008734f8 Ge/POTCAR             
   COPYR  = (c) Copyright 05Jan2001 Georg Kresse                                                    
   COPYR  = This file is part of the software VASP. Any use, copying, and all other rights are regul
   COPYR  = If you do not have a valid VASP license, you may not use, copy or distribute this file. 
   VRHFIN =Ge: s2p2                                                                                 
   LEXCH  = PE                                                                                      
   EATOM  =   104.9960 eV,    7.7170 Ry                                                             
                                                                                                    
   TITEL  = PAW_PBE Ge 05Jan2001                                                                    
   LULTRA =        F    use ultrasoft PP ?                                                          
   IUNSCR =        1    unscreen: 0-lin 1-nonlin 2-no                                               
   RPACOR =    2.170    partial core radius                                                         
   POMASS =   72.610; ZVAL   =    4.000    mass and valenz                                          
   RCORE  =    2.300    outmost cutoff radius                                                       
   RWIGS  =    2.300; RWIGS  =    1.217    wigner-seitz radius (au A)                               
   ENMAX  =  173.807; ENMIN  =  130.355 eV                                                          
   ICORE  =        3    local potential                                                             
   LCOR   =        T    correct aug charges                                                         
   LPAW   =        T    paw PP                                                                      
   EAUG   =  385.843                                                                                
   DEXC   =    0.000                                                                                
   RMAX   =    2.342    core radius for proj-oper                                                   
   RAUG   =    1.300    factor for augmentation sphere                                              
   RDEP   =    2.318    radius for radial grids                                                     
   RDEPT  =    2.103    core radius for aug-charge                                                  
                                                                                                    
   Atomic configuration                                                                             
   10 entries                                                                                       
     n  l   j            E        occ.                                                              
     1  0  0.50    -10959.8463   2.0000                                                             
     2  0  0.50     -1371.6056   2.0000                                                             
     2  1  1.50     -1198.4791   6.0000                                                             
     3  0  0.50      -168.4733   2.0000                                                             
     3  1  1.50      -115.6019   6.0000                                                             
     3  2  2.50       -29.3106  10.0000                                                             
     4  0  0.50       -11.7309   2.0000                                                             
     4  1  0.50        -3.8952   2.0000                                                             
     4  2  1.50        -4.0817   0.0000                                                             
     4  3  2.50        -4.0817   0.0000                                                             
   Description                                                                                      
     l       E           TYP  RCUT    TYP  RCUT                                                     
     0    -11.7309493     23  2.300                                                                 
     0     -7.4578696     23  2.300                                                                 
     1     -3.8952261     23  2.300                                                                 
     1      6.1178114     23  2.300                                                                 
     2     -4.0817478     23  2.300                                                                 
     3     -1.3605826      7  2.300                                                                 
  local pseudopotential read in
  partial core-charges read in
  partial kinetic energy density read in
  atomic valenz-charges read in
  non local Contribution for L=           0  read in
    real space projection operators read in
  non local Contribution for L=           0  read in
    real space projection operators read in
  non local Contribution for L=           1  read in
    real space projection operators read in
  non local Contribution for L=           1  read in
    real space projection operators read in
  non local Contribution for L=           2  read in
    real space projection operators read in
    PAW grid and wavefunctions read in
 
   number of l-projection  operators is LMAX  =           5
   number of lm-projection operators is LMMAX =          13
 
 POTCAR:    PAW_PBE Fe 06Sep2000                  
   SHA256 =  cd5a22d9368cc8b5cc476bea79732366149640da08ac9009b0e1b7fc627eea28 Fe/POTCAR             
   COPYR  = (c) Copyright 06Sep2000 Georg Kresse                                                    
   COPYR  = This file is part of the software VASP. Any use, copying, and all other rights are regul
   COPYR  = If you do not have a valid VASP license, you may not use, copy or distribute this file. 
   VRHFIN =Fe:  d7 s1                                                                               
   LEXCH  = PE                                                                                      
   EATOM  =   594.3153 eV,   43.6809 Ry                                                             
                                                                                                    
   TITEL  = PAW_PBE Fe 06Sep2000                                                                    
   LULTRA =        F    use ultrasoft PP ?                                                          
   IUNSCR =        1    unscreen: 0-lin 1-nonlin 2-no                                               
   RPACOR =    2.000    partial core radius                                                         
   POMASS =   55.847; ZVAL   =    8.000    mass and valenz                                          
   RCORE  =    2.300    outmost cutoff radius                                                       
   RWIGS  =    2.460; RWIGS  =    1.302    wigner-seitz radius (au A)                               
   ENMAX  =  267.882; ENMIN  =  200.911 eV                                                          
   RCLOC  =    1.701    cutoff for local pot                                                        
   LCOR   =        T    correct aug charges                                                         
   LPAW   =        T    paw PP                                                                      
   EAUG   =  511.368                                                                                
   DEXC   =    0.000                                                                                
   RMAX   =    2.356    core radius for proj-oper                                                   
   RAUG   =    1.300    factor for augmentation sphere                                              
   RDEP   =    2.442    radius for radial grids                                                     
   RDEPT  =    1.890    core radius for aug-charge                                                  
                                                                                                    
   Atomic configuration                                                                             
    9 entries                                                                                       
     n  l   j            E        occ.                                                              
     1  0  0.50     -6993.8440   2.0000                                                             
     2  0  0.50      -814.6047   2.0000                                                             
     2  1  1.50      -693.3689   6.0000                                                             
     3  0  0.50       -89.4732   2.0000                                                             
     3  1  1.50       -55.6373   6.0000                                                             
     3  2  2.50        -3.8151   7.0000                                                             
     4  0  0.50        -4.2551   1.0000                                                             
     4  1  1.50        -3.4015   0.0000                                                             
     4  3  2.50        -1.3606   0.0000                                                             
   Description                                                                                      
     l       E           TYP  RCUT    TYP  RCUT                                                     
     2     -3.8151135     23  2.300                                                                 
     2     -5.1756961     23  2.300                                                                 
     0     -4.2550963     23  2.300                                                                 
     0      7.2035603     23  2.300                                                                 
     1     -2.7211652     23  2.300                                                                 
     1     18.4316424     23  2.300                                                                 
  local pseudopotential read in
  partial core-charges read in
  partial kinetic energy density read in
  atomic valenz-charges read in
  non local Contribution for L=           2  read in
    real space projection operators read in
  non local Contribution for L=           2  read in
    real space projection operators read in
  non local Contribution for L=           0  read in
    real space projection operators read in
  non local Contribution for L=           0  read in
    real space projection operators read in
  non local Contribution for L=           1  read in
    real space projection operators read in
  non local Contribution for L=           1  read in
    real space projection operators read in
    PAW grid and wavefunctions read in
 
   number of l-projection  operators is LMAX  =           6
   number of lm-projection operators is LMMAX =          18
 
 -----------------------------------------------------------------------------
|                                                                             |
|               ----> ADVICE to this user running VASP <----                  |
|                                                                             |
|     You have a (more or less) 'large supercell' and for larger cells it     |
|     might be more efficient to use real-space projection operators.         |
|     Therefore, try LREAL= Auto in the INCAR file.                           |
|     Mind: For very accurate calculation, you might also keep the            |
|     reciprocal projection scheme (i.e. LREAL=.FALSE.).                      |
|                                                                             |
 -----------------------------------------------------------------------------

  PAW_PBE Mn 06Sep2000                  :
 energy of atom  1       EATOM= -416.7541
 kinetic energy error for atom=    0.0033 (will be added to EATOM!!)
  PAW_PBE Ni 02Aug2007                  :
 energy of atom  2       EATOM=-1077.6739
 kinetic energy error for atom=    0.0038 (will be added to EATOM!!)
  PAW_PBE Ge 05Jan2001                  :
 energy of atom  3       EATOM= -104.9960
 kinetic energy error for atom=    0.0003 (will be added to EATOM!!)
  PAW_PBE Fe 06Sep2000                  :
 energy of atom  4       EATOM= -594.3153
 kinetic energy error for atom=    0.0034 (will be added to EATOM!!)
 
 
 POSCAR: MnNiGe_orth
  positions in direct lattice
  velocities in cartesian coordinates
 exchange correlation table for  LEXCH =        8
   RHO(1)=    0.500       N(1)  =     2000
   RHO(2)=  100.500       N(2)  =     4000
 


--------------------------------------------------------------------------------------------------------


 ion  position               nearest neighbor table
   1  0.242  0.250  0.178-  41 2.50  45 2.50  32 2.55  44 2.74  40 2.74  16 2.77  18 2.77  29 2.84
                            25 2.84  24 2.90  28 2.90  14 3.15  10 3.15
   2  0.242  0.750  0.178-  41 2.50  45 2.50  33 2.55  44 2.74  40 2.74  17 2.77  19 2.77  29 2.84
                            25 2.84  24 2.90  28 2.90  14 3.15  10 3.15
   3  0.492  0.250  0.322-  42 2.50  46 2.50  34 2.55  45 2.74  41 2.74  18 2.77  20 2.77  30 2.84
                            26 2.84  25 2.90  29 2.90  11 3.15  48 3.15
   4  0.492  0.750  0.322-  42 2.50  46 2.50  35 2.55  45 2.74  41 2.74  19 2.77  21 2.77  30 2.84
                            26 2.84  25 2.90  29 2.90  11 3.15  48 3.15
   5  0.742  0.250  0.178-  43 2.50  47 2.50  36 2.55  46 2.74  42 2.74  20 2.77  22 2.77  31 2.84
                            27 2.84  26 2.90  30 2.90  15 3.15  12 3.15
   6  0.742  0.750  0.178-  43 2.50  47 2.50  37 2.55  46 2.74  42 2.74  21 2.77  23 2.77  31 2.84
                            27 2.84  26 2.90  30 2.90  15 3.15  12 3.15
   7  0.992  0.250  0.322-  40 2.50  44 2.50  38 2.55  43 2.74  47 2.74  22 2.77  16 2.77  28 2.84
                            24 2.84  31 2.90  27 2.90  13 3.15   9 3.15
   8  0.992  0.750  0.322-  40 2.50  44 2.50  39 2.55  43 2.74  47 2.74  23 2.77  17 2.77  28 2.84
                            24 2.84  31 2.90  27 2.90  13 3.15   9 3.15
   9  0.008  0.000  0.678-  38 2.50  39 2.50  40 2.55  33 2.74  32 2.74  24 2.77  27 2.77  23 2.84
                            22 2.84  17 2.90  16 2.90   8 3.15   7 3.15
  10  0.258  0.000  0.822-  32 2.50  33 2.50  41 2.55  35 2.74  34 2.74  25 2.77  24 2.77  17 2.84
                            16 2.84  19 2.90  18 2.90   2 3.15   1 3.15
  11  0.508  0.000  0.678-  34 2.50  35 2.50  42 2.55  37 2.74  36 2.74  26 2.77  25 2.77  19 2.84
                            18 2.84  21 2.90  20 2.90   4 3.15   3 3.15
  12  0.758  0.000  0.822-  36 2.50  37 2.50  43 2.55  39 2.74  38 2.74  27 2.77  26 2.77  21 2.84
                            20 2.84  23 2.90  22 2.90   6 3.15   5 3.15
  13  0.008  0.500  0.678-  38 2.50  39 2.50  44 2.55  33 2.74  32 2.74  28 2.77  31 2.77  23 2.84
                            22 2.84  17 2.90  16 2.90   8 3.15   7 3.15
  14  0.258  0.500  0.822-  32 2.50  33 2.50  45 2.55  35 2.74  34 2.74  29 2.77  28 2.77  17 2.84
                            16 2.84  19 2.90  18 2.90   2 3.15   1 3.15
  15  0.758  0.500  0.822-  36 2.50  37 2.50  47 2.55  39 2.74  38 2.74  31 2.77  30 2.77  21 2.84
                            20 2.84  23 2.90  22 2.90   6 3.15   5 3.15
  16  0.177  0.250  0.553-  40 2.33  44 2.33  32 2.38  34 2.45  25 2.68  29 2.68   1 2.77   7 2.77
                            10 2.84  14 2.84  13 2.90   9 2.90
  17  0.177  0.750  0.553-  40 2.33  44 2.33  33 2.38  35 2.45  25 2.68  29 2.68   2 2.77   8 2.77
                            10 2.84  14 2.84  13 2.90   9 2.90
  18  0.427  0.250  0.947-  41 2.33  45 2.33  34 2.38  36 2.45  26 2.68  30 2.68   3 2.77   1 2.77
                            11 2.84  48 2.84  14 2.90  10 2.90
  19  0.427  0.750  0.947-  41 2.33  45 2.33  35 2.38  37 2.45  26 2.68  30 2.68   4 2.77   2 2.77
                            11 2.84  48 2.84  14 2.90  10 2.90
  20  0.677  0.250  0.553-  42 2.33  46 2.33  36 2.38  38 2.45  27 2.68  31 2.68   5 2.77   3 2.77
                            12 2.84  15 2.84  11 2.90  48 2.90
  21  0.677  0.750  0.553-  42 2.33  46 2.33  37 2.38  39 2.45  27 2.68  31 2.68   6 2.77   4 2.77
                            12 2.84  15 2.84  11 2.90  48 2.90
  22  0.927  0.250  0.947-  43 2.33  47 2.33  38 2.38  32 2.45  24 2.68  28 2.68   7 2.77   5 2.77
                             9 2.84  13 2.84  12 2.90  15 2.90
  23  0.927  0.750  0.947-  43 2.33  47 2.33  39 2.38  33 2.45  24 2.68  28 2.68   8 2.77   6 2.77
                             9 2.84  13 2.84  12 2.90  15 2.90
  24  0.073  0.000  0.053-  32 2.33  33 2.33  40 2.38  43 2.45  22 2.68  23 2.68   9 2.77  10 2.77
                             7 2.84   8 2.84   1 2.90   2 2.90
  25  0.323  0.000  0.447-  34 2.33  35 2.33  41 2.38  40 2.45  16 2.68  17 2.68  10 2.77  11 2.77
                             1 2.84   2 2.84   3 2.90   4 2.90
  26  0.573  0.000  0.053-  36 2.33  37 2.33  42 2.38  41 2.45  18 2.68  19 2.68  11 2.77  12 2.77
                             3 2.84   4 2.84   5 2.90   6 2.90
  27  0.823  0.000  0.447-  38 2.33  39 2.33  43 2.38  42 2.45  20 2.68  21 2.68  12 2.77   9 2.77
                             5 2.84   6 2.84   7 2.90   8 2.90
  28  0.073  0.500  0.053-  32 2.33  33 2.33  44 2.38  47 2.45  22 2.68  23 2.68  13 2.77  14 2.77
                             7 2.84   8 2.84   1 2.90   2 2.90
  29  0.323  0.500  0.447-  34 2.33  35 2.33  45 2.38  44 2.45  16 2.68  17 2.68  14 2.77  48 2.77
                             1 2.84   2 2.84   3 2.90   4 2.90
  30  0.573  0.500  0.053-  36 2.33  37 2.33  46 2.38  45 2.45  18 2.68  19 2.68  48 2.77  15 2.77
                             3 2.84   4 2.84   5 2.90   6 2.90
  31  0.823  0.500  0.447-  38 2.33  39 2.33  47 2.38  46 2.45  20 2.68  21 2.68  15 2.77  13 2.77
                             5 2.84   6 2.84   7 2.90   8 2.90
  32  0.125  0.250  0.878-  24 2.33  28 2.33  16 2.38  22 2.45  10 2.50  14 2.50   1 2.55  13 2.74
                             9 2.74
  33  0.125  0.750  0.878-  24 2.33  28 2.33  17 2.38  23 2.45  10 2.50  14 2.50   2 2.55  13 2.74
                             9 2.74
  34  0.375  0.250  0.622-  25 2.33  29 2.33  18 2.38  16 2.45  11 2.50  48 2.50   3 2.55  14 2.74
                            10 2.74
  35  0.375  0.750  0.622-  25 2.33  29 2.33  19 2.38  17 2.45  11 2.50  48 2.50   4 2.55  14 2.74
                            10 2.74
  36  0.625  0.250  0.878-  26 2.33  30 2.33  20 2.38  18 2.45  12 2.50  15 2.50   5 2.55  11 2.74
                            48 2.74
  37  0.625  0.750  0.878-  26 2.33  30 2.33  21 2.38  19 2.45  12 2.50  15 2.50   6 2.55  11 2.74
                            48 2.74
  38  0.875  0.250  0.622-  27 2.33  31 2.33  22 2.38  20 2.45   9 2.50  13 2.50   7 2.55  12 2.74
                            15 2.74
  39  0.875  0.750  0.622-  27 2.33  31 2.33  23 2.38  21 2.45   9 2.50  13 2.50   8 2.55  12 2.74
                            15 2.74
  40  0.125  0.000  0.378-  16 2.33  17 2.33  24 2.38  25 2.45   7 2.50   8 2.50   9 2.55   2 2.74
                             1 2.74
  41  0.375  0.000  0.122-  18 2.33  19 2.33  25 2.38  26 2.45   1 2.50   2 2.50  10 2.55   4 2.74
                             3 2.74
  42  0.625  0.000  0.378-  20 2.33  21 2.33  26 2.38  27 2.45   3 2.50   4 2.50  11 2.55   6 2.74
                             5 2.74
  43  0.875  0.000  0.122-  22 2.33  23 2.33  27 2.38  24 2.45   5 2.50   6 2.50  12 2.55   8 2.74
                             7 2.74
  44  0.125  0.500  0.378-  16 2.33  17 2.33  28 2.38  29 2.45   7 2.50   8 2.50  13 2.55   2 2.74
                             1 2.74
  45  0.375  0.500  0.122-  18 2.33  19 2.33  29 2.38  30 2.45   1 2.50   2 2.50  14 2.55   4 2.74
                             3 2.74
  46  0.625  0.500  0.378-  20 2.33  21 2.33  30 2.38  31 2.45   3 2.50   4 2.50  48 2.55   6 2.74
                             5 2.74
  47  0.875  0.500  0.122-  22 2.33  23 2.33  31 2.38  28 2.45   5 2.50   6 2.50  15 2.55   8 2.74
                             7 2.74
  48  0.508  0.500  0.678-  34 2.50  35 2.50  46 2.55  37 2.74  36 2.74  30 2.77  29 2.77  19 2.84
                            18 2.84  21 2.90  20 2.90   4 3.15   3 3.15
 
  LATTYP: Found a simple orthorhombic cell.
 ALAT       =     7.0798650674
 B/A-ratio  =     1.0555008508
 C/A-ratio  =     1.7085169161
  
  Lattice vectors:
  
 A1 = (   0.0000000000,   0.0000000000,  -7.0798650674)
 A2 = (   0.0000000000,  -7.4728036022,   0.0000000000)
 A3 = ( -12.0960692311,   0.0000000000,   0.0000000000)


Analysis of symmetry for initial positions (statically):
=====================================================================
 Subroutine PRICEL returns:
 Original cell was already a primitive cell.
 

 Routine SETGRP: Setting up the symmetry group for a 
 simple orthorhombic supercell.


 Subroutine GETGRP returns: Found  2 space group operations
 (whereof  2 operations were pure point group operations)
 out of a pool of  8 trial point group operations.


The static configuration has the point symmetry C_1h.


Analysis of symmetry for dynamics (positions and initial velocities):
=====================================================================
 Subroutine PRICEL returns:
 Original cell was already a primitive cell.
 

 Routine SETGRP: Setting up the symmetry group for a 
 simple orthorhombic supercell.


 Subroutine GETGRP returns: Found  2 space group operations
 (whereof  2 operations were pure point group operations)
 out of a pool of  8 trial point group operations.


The dynamic configuration has the point symmetry C_1h.


Analysis of structural, dynamic, and magnetic symmetry:
=====================================================================
 Subroutine PRICEL returns:
 Original cell was already a primitive cell.
 

 Routine SETGRP: Setting up the symmetry group for a 
 simple orthorhombic supercell.


 Subroutine GETGRP returns: Found  2 space group operations
 (whereof  2 operations were pure point group operations)
 out of a pool of  8 trial point group operations.


The magnetic configuration has the point symmetry C_1h.


 Subroutine INISYM returns: Found  2 space group operations
 (whereof  2 operations are pure point group operations),
 and found     1 'primitive' translations


----------------------------------------------------------------------------------------

                                     Primitive cell                                     

  volume of cell :     639.9600

  direct lattice vectors                    reciprocal lattice vectors
    12.096069231  0.000000000  0.000000000     0.082671485  0.000000000  0.000000000
     0.000000000  7.472803602  0.000000000     0.000000000  0.133818584  0.000000000
     0.000000000  0.000000000  7.079865067     0.000000000  0.000000000  0.141245630

  length of vectors
    12.096069231  7.472803602  7.079865067     0.082671485  0.133818584  0.141245630

  position of ions in fractional coordinates (direct lattice)
     0.241899997  0.250000000  0.178299993
     0.241899997  0.750000000  0.178299993
     0.491899997  0.250000000  0.321700007
     0.491899997  0.750000000  0.321700007
     0.741900027  0.250000000  0.178299993
     0.741900027  0.750000000  0.178299993
     0.991900027  0.250000000  0.321700007
     0.991900027  0.750000000  0.321700007
     0.008100000  0.000000000  0.678300023
     0.258100003  0.000000000  0.821699977
     0.508099973  0.000000000  0.678300023
     0.758099973  0.000000000  0.821699977
     0.008100000  0.500000000  0.678300023
     0.258100003  0.500000000  0.821699977
     0.758099973  0.500000000  0.821699977
     0.176699996  0.250000000  0.553300023
     0.176699996  0.750000000  0.553300023
     0.426699996  0.250000000  0.946699977
     0.426699996  0.750000000  0.946699977
     0.676699996  0.250000000  0.553300023
     0.676699996  0.750000000  0.553300023
     0.926699996  0.250000000  0.946699977
     0.926699996  0.750000000  0.946699977
     0.073299997  0.000000000  0.053300001
     0.323300004  0.000000000  0.446700007
     0.573300004  0.000000000  0.053300001
     0.823300004  0.000000000  0.446700007
     0.073299997  0.500000000  0.053300001
     0.323300004  0.500000000  0.446700007
     0.573300004  0.500000000  0.053300001
     0.823300004  0.500000000  0.446700007
     0.125249997  0.250000000  0.878300011
     0.125249997  0.750000000  0.878300011
     0.375250012  0.250000000  0.621699989
     0.375250012  0.750000000  0.621699989
     0.625249982  0.250000000  0.878300011
     0.625249982  0.750000000  0.878300011
     0.875249982  0.250000000  0.621699989
     0.875249982  0.750000000  0.621699989
     0.124750003  0.000000000  0.378300011
     0.374749988  0.000000000  0.121699996
     0.624750018  0.000000000  0.378300011
     0.874750018  0.000000000  0.121699996
     0.124750003  0.500000000  0.378300011
     0.374749988  0.500000000  0.121699996
     0.624750018  0.500000000  0.378300011
     0.874750018  0.500000000  0.121699996
     0.508099973  0.500000000  0.678300023

  ion indices of the primitive-cell ions
   primitive index   ion index
                 1           1
                 2           2
                 3           3
                 4           4
                 5           5
                 6           6
                 7           7
                 8           8
                 9           9
                10          10
                11          11
                12          12
                13          13
                14          14
                15          15
                16          16
                17          17
                18          18
                19          19
                20          20
                21          21
                22          22
                23          23
                24          24
                25          25
                26          26
                27          27
                28          28
                29          29
                30          30
                31          31
                32          32
                33          33
                34          34
                35          35
                36          36
                37          37
                38          38
                39          39
                40          40
                41          41
                42          42
                43          43
                44          44
                45          45
                46          46
                47          47
                48          48

----------------------------------------------------------------------------------------

 
 
 KPOINTS: Auto                                    

Automatic generation of k-mesh.
Space group operators:
 irot       det(A)        alpha          n_x          n_y          n_z        tau_x        tau_y        tau_z
    1     1.000000     0.000000     1.000000     0.000000     0.000000     0.000000     0.000000     0.000000
    2    -1.000000   180.000000     0.000000     1.000000     0.000000     0.000000     0.000000     0.000000
 
 Subroutine IBZKPT returns following result:
 ===========================================
 
 Found     60 irreducible k-points:
 
 Following reciprocal coordinates:
            Coordinates               Weight
  0.000000  0.000000  0.000000      1.000000
  0.250000  0.000000  0.000000      2.000000
  0.500000  0.000000  0.000000      1.000000
  0.000000  0.142857  0.000000      2.000000
  0.250000  0.142857  0.000000      4.000000
  0.500000  0.142857  0.000000      2.000000
  0.000000  0.285714  0.000000      2.000000
  0.250000  0.285714  0.000000      4.000000
  0.500000  0.285714  0.000000      2.000000
  0.000000  0.428571  0.000000      2.000000
  0.250000  0.428571  0.000000      4.000000
  0.500000  0.428571  0.000000      2.000000
  0.000000  0.000000  0.142857      2.000000
  0.250000  0.000000  0.142857      2.000000
 -0.250000  0.000000  0.142857      2.000000
  0.500000  0.000000  0.142857      2.000000
  0.000000  0.142857  0.142857      4.000000
  0.250000  0.142857  0.142857      4.000000
 -0.250000 -0.142857  0.142857      4.000000
  0.500000  0.142857  0.142857      4.000000
  0.000000  0.285714  0.142857      4.000000
  0.250000  0.285714  0.142857      4.000000
 -0.250000 -0.285714  0.142857      4.000000
  0.500000  0.285714  0.142857      4.000000
  0.000000  0.428571  0.142857      4.000000
  0.250000  0.428571  0.142857      4.000000
 -0.250000 -0.428571  0.142857      4.000000
  0.500000  0.428571  0.142857      4.000000
  0.000000  0.000000  0.285714      2.000000
  0.250000  0.000000  0.285714      2.000000
 -0.250000  0.000000  0.285714      2.000000
  0.500000  0.000000  0.285714      2.000000
  0.000000  0.142857  0.285714      4.000000
  0.250000  0.142857  0.285714      4.000000
 -0.250000 -0.142857  0.285714      4.000000
  0.500000  0.142857  0.285714      4.000000
  0.000000  0.285714  0.285714      4.000000
  0.250000  0.285714  0.285714      4.000000
 -0.250000 -0.285714  0.285714      4.000000
  0.500000  0.285714  0.285714      4.000000
  0.000000  0.428571  0.285714      4.000000
  0.250000  0.428571  0.285714      4.000000
 -0.250000 -0.428571  0.285714      4.000000
  0.500000  0.428571  0.285714      4.000000
  0.000000  0.000000  0.428571      2.000000
  0.250000  0.000000  0.428571      2.000000
 -0.250000  0.000000  0.428571      2.000000
  0.500000  0.000000  0.428571      2.000000
  0.000000  0.142857  0.428571      4.000000
  0.250000  0.142857  0.428571      4.000000
 -0.250000 -0.142857  0.428571      4.000000
  0.500000  0.142857  0.428571      4.000000
  0.000000  0.285714  0.428571      4.000000
  0.250000  0.285714  0.428571      4.000000
 -0.250000 -0.285714  0.428571      4.000000
  0.500000  0.285714  0.428571      4.000000
  0.000000  0.428571  0.428571      4.000000
  0.250000  0.428571  0.428571      4.000000
 -0.250000 -0.428571  0.428571      4.000000
  0.500000  0.428571  0.428571      4.000000
 
 Following cartesian coordinates:
            Coordinates               Weight
  0.000000  0.000000  0.000000      1.000000
  0.020771  0.000000  0.000000      2.000000
  0.041542  0.000000  0.000000      1.000000
  0.000000  0.019213  0.000000      2.000000
  0.020771  0.019213  0.000000      4.000000
  0.041542  0.019213  0.000000      2.000000
  0.000000  0.038425  0.000000      2.000000
  0.020771  0.038425  0.000000      4.000000
  0.041542  0.038425  0.000000      2.000000
  0.000000  0.057638  0.000000      2.000000
  0.020771  0.057638  0.000000      4.000000
  0.041542  0.057638  0.000000      2.000000
  0.000000  0.000000  0.020279      2.000000
  0.020771  0.000000  0.020279      2.000000
 -0.020771  0.000000  0.020279      2.000000
  0.041542  0.000000  0.020279      2.000000
  0.000000  0.019213  0.020279      4.000000
  0.020771  0.019213  0.020279      4.000000
 -0.020771 -0.019213  0.020279      4.000000
  0.041542  0.019213  0.020279      4.000000
  0.000000  0.038425  0.020279      4.000000
  0.020771  0.038425  0.020279      4.000000
 -0.020771 -0.038425  0.020279      4.000000
  0.041542  0.038425  0.020279      4.000000
  0.000000  0.057638  0.020279      4.000000
  0.020771  0.057638  0.020279      4.000000
 -0.020771 -0.057638  0.020279      4.000000
  0.041542  0.057638  0.020279      4.000000
  0.000000  0.000000  0.040558      2.000000
  0.020771  0.000000  0.040558      2.000000
 -0.020771  0.000000  0.040558      2.000000
  0.041542  0.000000  0.040558      2.000000
  0.000000  0.019213  0.040558      4.000000
  0.020771  0.019213  0.040558      4.000000
 -0.020771 -0.019213  0.040558      4.000000
  0.041542  0.019213  0.040558      4.000000
  0.000000  0.038425  0.040558      4.000000
  0.020771  0.038425  0.040558      4.000000
 -0.020771 -0.038425  0.040558      4.000000
  0.041542  0.038425  0.040558      4.000000
  0.000000  0.057638  0.040558      4.000000
  0.020771  0.057638  0.040558      4.000000
 -0.020771 -0.057638  0.040558      4.000000
  0.041542  0.057638  0.040558      4.000000
  0.000000  0.000000  0.060837      2.000000
  0.020771  0.000000  0.060837      2.000000
 -0.020771  0.000000  0.060837      2.000000
  0.041542  0.000000  0.060837      2.000000
  0.000000  0.019213  0.060837      4.000000
  0.020771  0.019213  0.060837      4.000000
 -0.020771 -0.019213  0.060837      4.000000
  0.041542  0.019213  0.060837      4.000000
  0.000000  0.038425  0.060837      4.000000
  0.020771  0.038425  0.060837      4.000000
 -0.020771 -0.038425  0.060837      4.000000
  0.041542  0.038425  0.060837      4.000000
  0.000000  0.057638  0.060837      4.000000
  0.020771  0.057638  0.060837      4.000000
 -0.020771 -0.057638  0.060837      4.000000
  0.041542  0.057638  0.060837      4.000000
 


--------------------------------------------------------------------------------------------------------




 Dimension of arrays:
   k-points           NKPTS =     60   k-points in BZ     NKDIM =     60   number of bands    NBANDS=    360
   number of dos      NEDOS =    301   number of ions     NIONS =     48
   non local maximal  LDIM  =      6   non local SUM 2l+1 LMDIM =     18
   total plane-waves  NPLWV = 226800
   max r-space proj   IRMAX =      1   max aug-charges    IRDMAX=  19459
   dimension x,y,z NGX =    84 NGY =   54 NGZ =   50
   dimension x,y,z NGXF=   168 NGYF=  108 NGZF=  100
   support grid    NGXF=   168 NGYF=  108 NGZF=  100
   ions per type =              15  16  16   1
   NGX,Y,Z   is equivalent  to a cutoff of  11.54, 12.01, 11.74 a.u.
   NGXF,Y,Z  is equivalent  to a cutoff of  23.09, 24.03, 23.48 a.u.

 SYSTEM =  MnFeNiGe_mag_orth-scf                   
 POSCAR =  MnNiGe_orth                             

 Startparameter for this run:
   NWRITE =      2    write-flag & timer
   PREC   = accura    normal or accurate (medium, high low for compatibility)
   ISTART =      0    job   : 0-new  1-cont  2-samecut
   ICHARG =      2    charge: 1-file 2-atom 10-const
   ISPIN  =      2    spin polarized calculation?
   LNONCOLLINEAR =      F non collinear calculations
   LSORBIT =      F    spin-orbit coupling
   INIWAV =      1    electr: 0-lowe 1-rand  2-diag
   LASPH  =      F    aspherical Exc in radial PAW
   METAGGA=      F    non-selfconsistent MetaGGA calc.

 Electronic Relaxation 1
   ENCUT  =  450.0 eV  33.07 Ry    5.75 a.u.  20.92 12.93 12.25*2*pi/ulx,y,z
   ENINI  =  450.0     initial cutoff
   ENAUG  =  544.6 eV  augmentation charge cutoff
   NELM   =     60;   NELMIN=  5; NELMDL= -5     # of ELM steps 
   EDIFF  = 0.1E-05   stopping-criterion for ELM
   LREAL  =      F    real-space projection
   NLSPLINE    = F    spline interpolate recip. space projectors
   LCOMPAT=      F    compatible to vasp.4.4
   GGA_COMPAT  = T    GGA compatible to vasp.4.4-vasp.4.6
   LMAXPAW     = -100 max onsite density
   LMAXMIX     =    2 max onsite mixed and CHGCAR
   VOSKOWN=      0    Vosko Wilk Nusair interpolation
   ROPT   =    0.00000   0.00000   0.00000   0.00000
 Ionic relaxation
   EDIFFG = 0.1E-04   stopping-criterion for IOM
   NSW    =      0    number of steps for IOM
   NBLOCK =      1;   KBLOCK =      1    inner block; outer block 
   IBRION =     -1    ionic relax: 0-MD 1-quasi-New 2-CG
   NFREE  =      0    steps in history (QN), initial steepest desc. (CG)
   ISIF   =      6    stress and relaxation
   IWAVPR =     10    prediction:  0-non 1-charg 2-wave 3-comb
   ISYM   =      2    0-nonsym 1-usesym 2-fastsym
   LCORR  =      T    Harris-Foulkes like correction to forces

   POTIM  = 0.5000    time-step for ionic-motion
   TEIN   =    0.0    initial temperature
   TEBEG  =    0.0;   TEEND  =   0.0 temperature during run
   SMASS  =  -3.00    Nose mass-parameter (am)
   estimated Nose-frequenzy (Omega)   =  0.10E-29 period in steps = 0.13E+47 mass=  -0.334E-26a.u.
   SCALEE = 1.0000    scale energy and forces
   NPACO  =    256;   APACO  = 16.0  distance and # of slots for P.C.
   PSTRESS=    0.0 pullay stress

  Mass of Ions in am
   POMASS =  54.94 58.69 72.61 55.85
  Ionic Valenz
   ZVAL   =   7.00 10.00  4.00  8.00
  Atomic Wigner-Seitz radii
   RWIGS  =  -1.00 -1.00 -1.00 -1.00
  virtual crystal weights 
   VCA    =   1.00  1.00  1.00  1.00
   NELECT =     337.0000    total number of electrons
   NUPDOWN=      -1.0000    fix difference up-down

 DOS related values:
   EMIN   =  10.00;   EMAX   =-10.00  energy-range for DOS
   EFERMI =   0.00
   ISMEAR =     1;   SIGMA  =   0.20  broadening in eV -4-tet -1-fermi 0-gaus

 Electronic relaxation 2 (details)
   IALGO  =     38    algorithm
   LDIAG  =      T    sub-space diagonalisation (order eigenvalues)
   LSUBROT=      F    optimize rotation matrix (better conditioning)
   TURBO    =      0    0=normal 1=particle mesh
   IRESTART =      0    0=no restart 2=restart with 2 vectors
   NREBOOT  =      0    no. of reboots
   NMIN     =      0    reboot dimension
   EREF     =   0.00    reference energy to select bands
   IMIX   =      4    mixing-type and parameters
     AMIX     =   0.40;   BMIX     =  1.00
     AMIX_MAG =   1.60;   BMIX_MAG =  1.00
     AMIN     =   0.10
     WC   =   100.;   INIMIX=   1;  MIXPRE=   1;  MAXMIX= -45

 Intra band minimization:
   WEIMIN = 0.0000     energy-eigenvalue tresh-hold
   EBREAK =  0.69E-09  absolut break condition
   DEPER  =   0.30     relativ break condition  

   TIME   =   0.40     timestep for ELM

  volume/ion in A,a.u.               =      13.33        89.97
  Fermi-wavevector in a.u.,A,eV,Ry     =   1.322007  2.498232 23.778948  1.747703
  Thomas-Fermi vector in A             =   2.451720
 
 Write flags
   LWAVE        =      F    write WAVECAR
   LDOWNSAMPLE  =      F    k-point downsampling of WAVECAR
   LCHARG       =      T    write CHGCAR
   LVTOT        =      F    write LOCPOT, total local potential
   LVHAR        =      F    write LOCPOT, Hartree potential only
   LELF         =      F    write electronic localiz. function (ELF)
   LORBIT       =     11    0 simple, 1 ext, 2 COOP (PROOUT), +10 PAW based schemes


 Dipole corrections
   LMONO  =      F    monopole corrections only (constant potential shift)
   LDIPOL =      F    correct potential (dipole corrections)
   IDIPOL =      0    1-x, 2-y, 3-z, 4-all directions 
   EPSILON=  1.0000000 bulk dielectric constant

 Exchange correlation treatment:
   GGA     =    --    GGA type
   LEXCH   =     8    internal setting for exchange type
   VOSKOWN=      0    Vosko Wilk Nusair interpolation
   LHFCALC =     F    Hartree Fock is set to
   LHFONE  =     F    Hartree Fock one center treatment
   AEXX    =    0.0000 exact exchange contribution

 Linear response parameters
   LEPSILON=     F    determine dielectric tensor
   LRPA    =     F    only Hartree local field effects (RPA)
   LNABLA  =     F    use nabla operator in PAW spheres
   LVEL    =     F    velocity operator in full k-point grid
   LINTERFAST=   F  fast interpolation
   KINTER  =     0    interpolate to denser k-point grid
   CSHIFT  =0.1000    complex shift for real part using Kramers Kronig
   OMEGAMAX=  -1.0    maximum frequency
   DEG_THRESHOLD= 0.2000000E-02 threshold for treating states as degnerate
   RTIME   =   -0.100 relaxation time in fs
  (WPLASMAI=    0.000 imaginary part of plasma frequency in eV, 0.658/RTIME)
   DFIELD  = 0.0000000 0.0000000 0.0000000 field for delta impulse in time
 
 Orbital magnetization related:
   ORBITALMAG=     F  switch on orbital magnetization
   LCHIMAG   =     F  perturbation theory with respect to B field
   DQ        =  0.001000  dq finite difference perturbation B field
   LLRAUG    =     F  two centre corrections for induced B field



--------------------------------------------------------------------------------------------------------


 Static calculation
 charge density and potential will be updated during run
 spin polarized calculation
 Variant of blocked Davidson
 Davidson routine will perform the subspace rotation
 perform sub-space diagonalisation
    after iterative eigenvector-optimisation
 modified Broyden-mixing scheme, WC =      100.0
 initial mixing is a Kerker type mixing with AMIX =  0.4000 and BMIX =      1.0000
 Hartree-type preconditioning will be used
 using additional bands          191
 reciprocal scheme for non local part
 use partial core corrections
 calculate Harris-corrections to forces 
   (improved forces if not selfconsistent)
 use gradient corrections 
 use of overlap-Matrix (Vanderbilt PP)
 Methfessel and Paxton  Order N= 1 SIGMA  =   0.20


--------------------------------------------------------------------------------------------------------


  energy-cutoff  :      450.00
  volume of cell :      639.96
      direct lattice vectors                 reciprocal lattice vectors
    12.096069231  0.000000000  0.000000000     0.082671485  0.000000000  0.000000000
     0.000000000  7.472803602  0.000000000     0.000000000  0.133818584  0.000000000
     0.000000000  0.000000000  7.079865067     0.000000000  0.000000000  0.141245630

  length of vectors
    12.096069231  7.472803602  7.079865067     0.082671485  0.133818584  0.141245630


 
 k-points in units of 2pi/SCALE and weight: Auto                                    
   0.00000000  0.00000000  0.00000000       0.005
   0.02077121  0.00000000  0.00000000       0.010
   0.04154242  0.00000000  0.00000000       0.005
   0.00000000  0.01921253  0.00000000       0.010
   0.02077121  0.01921253  0.00000000       0.020
   0.04154242  0.01921253  0.00000000       0.010
   0.00000000  0.03842505  0.00000000       0.010
   0.02077121  0.03842505  0.00000000       0.020
   0.04154242  0.03842505  0.00000000       0.010
   0.00000000  0.05763758  0.00000000       0.010
   0.02077121  0.05763758  0.00000000       0.020
   0.04154242  0.05763758  0.00000000       0.010
   0.00000000  0.00000000  0.02027884       0.010
   0.02077121  0.00000000  0.02027884       0.010
  -0.02077121  0.00000000  0.02027884       0.010
   0.04154242  0.00000000  0.02027884       0.010
   0.00000000  0.01921253  0.02027884       0.020
   0.02077121  0.01921253  0.02027884       0.020
  -0.02077121 -0.01921253  0.02027884       0.020
   0.04154242  0.01921253  0.02027884       0.020
   0.00000000  0.03842505  0.02027884       0.020
   0.02077121  0.03842505  0.02027884       0.020
  -0.02077121 -0.03842505  0.02027884       0.020
   0.04154242  0.03842505  0.02027884       0.020
   0.00000000  0.05763758  0.02027884       0.020
   0.02077121  0.05763758  0.02027884       0.020
  -0.02077121 -0.05763758  0.02027884       0.020
   0.04154242  0.05763758  0.02027884       0.020
   0.00000000  0.00000000  0.04055767       0.010
   0.02077121  0.00000000  0.04055767       0.010
  -0.02077121  0.00000000  0.04055767       0.010
   0.04154242  0.00000000  0.04055767       0.010
   0.00000000  0.01921253  0.04055767       0.020
   0.02077121  0.01921253  0.04055767       0.020
  -0.02077121 -0.01921253  0.04055767       0.020
   0.04154242  0.01921253  0.04055767       0.020
   0.00000000  0.03842505  0.04055767       0.020
   0.02077121  0.03842505  0.04055767       0.020
  -0.02077121 -0.03842505  0.04055767       0.020
   0.04154242  0.03842505  0.04055767       0.020
   0.00000000  0.05763758  0.04055767       0.020
   0.02077121  0.05763758  0.04055767       0.020
  -0.02077121 -0.05763758  0.04055767       0.020
   0.04154242  0.05763758  0.04055767       0.020
   0.00000000  0.00000000  0.06083651       0.010
   0.02077121  0.00000000  0.06083651       0.010
  -0.02077121  0.00000000  0.06083651       0.010
   0.04154242  0.00000000  0.06083651       0.010
   0.00000000  0.01921253  0.06083651       0.020
   0.02077121  0.01921253  0.06083651       0.020
  -0.02077121 -0.01921253  0.06083651       0.020
   0.04154242  0.01921253  0.06083651       0.020
   0.00000000  0.03842505  0.06083651       0.020
   0.02077121  0.03842505  0.06083651       0.020
  -0.02077121 -0.03842505  0.06083651       0.020
   0.04154242  0.03842505  0.06083651       0.020
   0.00000000  0.05763758  0.06083651       0.020
   0.02077121  0.05763758  0.06083651       0.020
  -0.02077121 -0.05763758  0.06083651       0.020
   0.04154242  0.05763758  0.06083651       0.020
 
 k-points in reciprocal lattice and weights: Auto                                    
   0.00000000  0.00000000  0.00000000       0.005
   0.25000000  0.00000000  0.00000000       0.010
   0.50000000  0.00000000  0.00000000       0.005
   0.00000000  0.14285714  0.00000000       0.010
   0.25000000  0.14285714  0.00000000       0.020
   0.50000000  0.14285714  0.00000000       0.010
   0.00000000  0.28571429  0.00000000       0.010
   0.25000000  0.28571429  0.00000000       0.020
   0.50000000  0.28571429  0.00000000       0.010
   0.00000000  0.42857143  0.00000000       0.010
   0.25000000  0.42857143  0.00000000       0.020
   0.50000000  0.42857143  0.00000000       0.010
   0.00000000  0.00000000  0.14285714       0.010
   0.25000000  0.00000000  0.14285714       0.010
  -0.25000000  0.00000000  0.14285714       0.010
   0.50000000  0.00000000  0.14285714       0.010
   0.00000000  0.14285714  0.14285714       0.020
   0.25000000  0.14285714  0.14285714       0.020
  -0.25000000 -0.14285714  0.14285714       0.020
   0.50000000  0.14285714  0.14285714       0.020
   0.00000000  0.28571429  0.14285714       0.020
   0.25000000  0.28571429  0.14285714       0.020
  -0.25000000 -0.28571429  0.14285714       0.020
   0.50000000  0.28571429  0.14285714       0.020
   0.00000000  0.42857143  0.14285714       0.020
   0.25000000  0.42857143  0.14285714       0.020
  -0.25000000 -0.42857143  0.14285714       0.020
   0.50000000  0.42857143  0.14285714       0.020
   0.00000000  0.00000000  0.28571429       0.010
   0.25000000  0.00000000  0.28571429       0.010
  -0.25000000  0.00000000  0.28571429       0.010
   0.50000000  0.00000000  0.28571429       0.010
   0.00000000  0.14285714  0.28571429       0.020
   0.25000000  0.14285714  0.28571429       0.020
  -0.25000000 -0.14285714  0.28571429       0.020
   0.50000000  0.14285714  0.28571429       0.020
   0.00000000  0.28571429  0.28571429       0.020
   0.25000000  0.28571429  0.28571429       0.020
  -0.25000000 -0.28571429  0.28571429       0.020
   0.50000000  0.28571429  0.28571429       0.020
   0.00000000  0.42857143  0.28571429       0.020
   0.25000000  0.42857143  0.28571429       0.020
  -0.25000000 -0.42857143  0.28571429       0.020
   0.50000000  0.42857143  0.28571429       0.020
   0.00000000  0.00000000  0.42857143       0.010
   0.25000000  0.00000000  0.42857143       0.010
  -0.25000000  0.00000000  0.42857143       0.010
   0.50000000  0.00000000  0.42857143       0.010
   0.00000000  0.14285714  0.42857143       0.020
   0.25000000  0.14285714  0.42857143       0.020
  -0.25000000 -0.14285714  0.42857143       0.020
   0.50000000  0.14285714  0.42857143       0.020
   0.00000000  0.28571429  0.42857143       0.020
   0.25000000  0.28571429  0.42857143       0.020
  -0.25000000 -0.28571429  0.42857143       0.020
   0.50000000  0.28571429  0.42857143       0.020
   0.00000000  0.42857143  0.42857143       0.020
   0.25000000  0.42857143  0.42857143       0.020
  -0.25000000 -0.42857143  0.42857143       0.020
   0.50000000  0.42857143  0.42857143       0.020
 
 position of ions in fractional coordinates (direct lattice) 
   0.24190000  0.25000000  0.17829999
   0.24190000  0.75000000  0.17829999
   0.49190000  0.25000000  0.32170001
   0.49190000  0.75000000  0.32170001
   0.74190003  0.25000000  0.17829999
   0.74190003  0.75000000  0.17829999
   0.99190003  0.25000000  0.32170001
   0.99190003  0.75000000  0.32170001
   0.00810000  0.00000000  0.67830002
   0.25810000  0.00000000  0.82169998
   0.50809997  0.00000000  0.67830002
   0.75809997  0.00000000  0.82169998
   0.00810000  0.50000000  0.67830002
   0.25810000  0.50000000  0.82169998
   0.75809997  0.50000000  0.82169998
   0.17670000  0.25000000  0.55330002
   0.17670000  0.75000000  0.55330002
   0.42670000  0.25000000  0.94669998
   0.42670000  0.75000000  0.94669998
   0.67670000  0.25000000  0.55330002
   0.67670000  0.75000000  0.55330002
   0.92670000  0.25000000  0.94669998
   0.92670000  0.75000000  0.94669998
   0.07330000  0.00000000  0.05330000
   0.32330000  0.00000000  0.44670001
   0.57330000  0.00000000  0.05330000
   0.82330000  0.00000000  0.44670001
   0.07330000  0.50000000  0.05330000
   0.32330000  0.50000000  0.44670001
   0.57330000  0.50000000  0.05330000
   0.82330000  0.50000000  0.44670001
   0.12525000  0.25000000  0.87830001
   0.12525000  0.75000000  0.87830001
   0.37525001  0.25000000  0.62169999
   0.37525001  0.75000000  0.62169999
   0.62524998  0.25000000  0.87830001
   0.62524998  0.75000000  0.87830001
   0.87524998  0.25000000  0.62169999
   0.87524998  0.75000000  0.62169999
   0.12475000  0.00000000  0.37830001
   0.37474999  0.00000000  0.12170000
   0.62475002  0.00000000  0.37830001
   0.87475002  0.00000000  0.12170000
   0.12475000  0.50000000  0.37830001
   0.37474999  0.50000000  0.12170000
   0.62475002  0.50000000  0.37830001
   0.87475002  0.50000000  0.12170000
   0.50809997  0.50000000  0.67830002
 
 position of ions in cartesian coordinates  (Angst):
   2.92603911  1.86820090  1.26233989
   2.92603911  5.60460270  1.26233989
   5.95005642  1.86820090  2.27759264
   5.95005642  5.60460270  2.27759264
   8.97407409  1.86820090  1.26233989
   8.97407409  5.60460270  1.26233989
  11.99809140  1.86820090  2.27759264
  11.99809140  5.60460270  2.27759264
   0.09797816  0.00000000  4.80227264
   3.12199550  0.00000000  5.81752496
   6.14601245  0.00000000  4.80227264
   9.17002976  0.00000000  5.81752496
   0.09797816  3.73640180  4.80227264
   3.12199550  3.73640180  5.81752496
   9.17002976  3.73640180  5.81752496
   2.13737538  1.86820090  3.91728950
   2.13737538  5.60460270  3.91728950
   5.16139269  1.86820090  6.70250810
   5.16139269  5.60460270  6.70250810
   8.18541000  1.86820090  3.91728950
   8.18541000  5.60460270  3.91728950
  11.20942731  1.86820090  6.70250810
  11.20942731  5.60460270  6.70250810
   0.88664184  0.00000000  0.37735682
   3.91065923  0.00000000  3.16257578
   6.93467654  0.00000000  0.37735682
   9.95869385  0.00000000  3.16257578
   0.88664184  3.73640180  0.37735682
   3.91065923  3.73640180  3.16257578
   6.93467654  3.73640180  0.37735682
   9.95869385  3.73640180  3.16257578
   1.51503263  1.86820090  6.21824557
   1.51503263  5.60460270  6.21824557
   4.53905012  1.86820090  4.40155203
   4.53905012  5.60460270  4.40155203
   7.56306707  1.86820090  6.21824557
   7.56306707  5.60460270  6.21824557
  10.58708438  1.86820090  4.40155203
  10.58708438  5.60460270  4.40155203
   1.50898467  0.00000000  2.67831303
   4.53300180  0.00000000  0.86161955
   7.55701947  0.00000000  2.67831303
  10.58103678  0.00000000  0.86161955
   1.50898467  3.73640180  2.67831303
   4.53300180  3.73640180  0.86161955
   7.55701947  3.73640180  2.67831303
  10.58103678  3.73640180  0.86161955
   6.14601245  3.73640180  4.80227264
 


--------------------------------------------------------------------------------------------------------


 k-point   1 :   0.0000 0.0000 0.0000  plane waves:   13881
 k-point   2 :   0.2500 0.0000 0.0000  plane waves:   13860
 k-point   3 :   0.5000 0.0000 0.0000  plane waves:   13874
 k-point   4 :   0.0000 0.1429 0.0000  plane waves:   13880
 k-point   5 :   0.2500 0.1429 0.0000  plane waves:   13862
 k-point   6 :   0.5000 0.1429 0.0000  plane waves:   13872
 k-point   7 :   0.0000 0.2857 0.0000  plane waves:   13862
 k-point   8 :   0.2500 0.2857 0.0000  plane waves:   13868
 k-point   9 :   0.5000 0.2857 0.0000  plane waves:   13906
 k-point  10 :   0.0000 0.4286 0.0000  plane waves:   13882
 k-point  11 :   0.2500 0.4286 0.0000  plane waves:   13891
 k-point  12 :   0.5000 0.4286 0.0000  plane waves:   13900
 k-point  13 :   0.0000 0.0000 0.1429  plane waves:   13879
 k-point  14 :   0.2500 0.0000 0.1429  plane waves:   13851
 k-point  15 :  -0.2500 0.0000 0.1429  plane waves:   13851
 k-point  16 :   0.5000 0.0000 0.1429  plane waves:   13868
 k-point  17 :   0.0000 0.1429 0.1429  plane waves:   13870
 k-point  18 :   0.2500 0.1429 0.1429  plane waves:   13864
 k-point  19 :  -0.2500-0.1429 0.1429  plane waves:   13864
 k-point  20 :   0.5000 0.1429 0.1429  plane waves:   13862
 k-point  21 :   0.0000 0.2857 0.1429  plane waves:   13862
 k-point  22 :   0.2500 0.2857 0.1429  plane waves:   13861
 k-point  23 :  -0.2500-0.2857 0.1429  plane waves:   13861
 k-point  24 :   0.5000 0.2857 0.1429  plane waves:   13866
 k-point  25 :   0.0000 0.4286 0.1429  plane waves:   13861
 k-point  26 :   0.2500 0.4286 0.1429  plane waves:   13882
 k-point  27 :  -0.2500-0.4286 0.1429  plane waves:   13882
 k-point  28 :   0.5000 0.4286 0.1429  plane waves:   13902
 k-point  29 :   0.0000 0.0000 0.2857  plane waves:   13832
 k-point  30 :   0.2500 0.0000 0.2857  plane waves:   13850
 k-point  31 :  -0.2500 0.0000 0.2857  plane waves:   13850
 k-point  32 :   0.5000 0.0000 0.2857  plane waves:   13864
 k-point  33 :   0.0000 0.1429 0.2857  plane waves:   13852
 k-point  34 :   0.2500 0.1429 0.2857  plane waves:   13862
 k-point  35 :  -0.2500-0.1429 0.2857  plane waves:   13862
 k-point  36 :   0.5000 0.1429 0.2857  plane waves:   13868
 k-point  37 :   0.0000 0.2857 0.2857  plane waves:   13879
 k-point  38 :   0.2500 0.2857 0.2857  plane waves:   13874
 k-point  39 :  -0.2500-0.2857 0.2857  plane waves:   13874
 k-point  40 :   0.5000 0.2857 0.2857  plane waves:   13866
 k-point  41 :   0.0000 0.4286 0.2857  plane waves:   13877
 k-point  42 :   0.2500 0.4286 0.2857  plane waves:   13879
 k-point  43 :  -0.2500-0.4286 0.2857  plane waves:   13879
 k-point  44 :   0.5000 0.4286 0.2857  plane waves:   13882
 k-point  45 :   0.0000 0.0000 0.4286  plane waves:   13832
 k-point  46 :   0.2500 0.0000 0.4286  plane waves:   13872
 k-point  47 :  -0.2500 0.0000 0.4286  plane waves:   13872
 k-point  48 :   0.5000 0.0000 0.4286  plane waves:   13856
 k-point  49 :   0.0000 0.1429 0.4286  plane waves:   13869
 k-point  50 :   0.2500 0.1429 0.4286  plane waves:   13866
 k-point  51 :  -0.2500-0.1429 0.4286  plane waves:   13866
 k-point  52 :   0.5000 0.1429 0.4286  plane waves:   13884
 k-point  53 :   0.0000 0.2857 0.4286  plane waves:   13871
 k-point  54 :   0.2500 0.2857 0.4286  plane waves:   13880
 k-point  55 :  -0.2500-0.2857 0.4286  plane waves:   13880
 k-point  56 :   0.5000 0.2857 0.4286  plane waves:   13888
 k-point  57 :   0.0000 0.4286 0.4286  plane waves:   13878
 k-point  58 :   0.2500 0.4286 0.4286  plane waves:   13875
 k-point  59 :  -0.2500-0.4286 0.4286  plane waves:   13875
 k-point  60 :   0.5000 0.4286 0.4286  plane waves:   13868

 maximum and minimum number of plane-waves per node :      2357     2258

 maximum number of plane-waves:     13906
 maximum index in each direction: 
   IXMAX=   21   IYMAX=   13   IZMAX=   12
   IXMIN=  -21   IYMIN=  -13   IZMIN=  -12


 parallel 3D FFT for wavefunctions:
    minimum data exchange during FFTs selected (reduces bandwidth)
 parallel 3D FFT for charge:
    minimum data exchange during FFTs selected (reduces bandwidth)


 total amount of memory used by VASP MPI-rank0   552438. kBytes
=======================================================================

   base      :      30000. kBytes
   nonl-proj :      82243. kBytes
   fftplans  :       3728. kBytes
   grid      :      10440. kBytes
   one-center:        248. kBytes
   wavefun   :     425779. kBytes
 
     INWAV:  cpu time    0.0010: real time    0.0042
 Broyden mixing: mesh for mixing (old mesh)
   NGX = 41   NGY = 25   NGZ = 25
  (NGX  =168   NGY  =108   NGZ  =100)
  gives a total of  25625 points

 initial charge density was supplied:
 charge density of overlapping atoms calculated
 number of electron     337.0000000 magnetization     160.0000000
 keeping initial charge density in first step


--------------------------------------------------------------------------------------------------------


 Maximum index for augmentation-charges          836 (set IRDMAX)


--------------------------------------------------------------------------------------------------------


 First call to EWALD:  gamma=   0.206
 Maximum number of real-space cells 2x 3x 3
 Maximum number of reciprocal cells 4x 2x 2

    FEWALD:  cpu time    0.0050: real time    0.0407


--------------------------------------- Iteration      1(   1)  ---------------------------------------


    POTLOK:  cpu time    0.1820: real time    1.2219
    SETDIJ:  cpu time    0.0350: real time    0.2380
     EDDAV:  cpu time  290.6708: real time  294.1781
       DOS:  cpu time    0.0370: real time    0.0786
    --------------------------------------------
      LOOP:  cpu time  290.9248: real time  295.7167

 eigenvalue-minimisations  : 86400
 total energy-change (2. order) : 0.2765193E+04  (-0.1097061E+05)
 number of electron     337.0000000 magnetization     160.0000000
 augmentation part      337.0000000 magnetization     160.0000000

 Free energy of the ion-electron system (eV)
  ---------------------------------------------------
  alpha Z        PSCENC =      1500.75848341
  Ewald energy   TEWEN  =    -21887.94991883
  -Hartree energ DENC   =     -7064.55026340
  -exchange      EXHF   =         0.00000000
  -V(xc)+E(xc)   XCENC  =       311.88891079
  PAW double counting   =     23377.83946347   -23998.34197029
  entropy T*S    EENTRO =        -0.00604128
  eigenvalues    EBANDS =      4757.32758460
  atomic energy  EATOM  =     25768.22672671
  Solvation  Ediel_sol  =         0.00000000
  ---------------------------------------------------
  free energy    TOTEN  =      2765.19297520 eV

  energy without entropy =     2765.19901648  energy(sigma->0) =     2765.19498896


--------------------------------------------------------------------------------------------------------




--------------------------------------- Iteration      1(   2)  ---------------------------------------


     EDDAV:  cpu time  290.6848: real time  291.8457
       DOS:  cpu time    0.0470: real time    0.0465
    --------------------------------------------
      LOOP:  cpu time  290.7318: real time  291.8922

 eigenvalue-minimisations  : 86400
 total energy-change (2. order) :-0.2606237E+04  (-0.2323914E+04)
 number of electron     337.0000000 magnetization     160.0000000
 augmentation part      337.0000000 magnetization     160.0000000

 Free energy of the ion-electron system (eV)
  ---------------------------------------------------
  alpha Z        PSCENC =      1500.75848341
  Ewald energy   TEWEN  =    -21887.94991883
  -Hartree energ DENC   =     -7064.55026340
  -exchange      EXHF   =         0.00000000
  -V(xc)+E(xc)   XCENC  =       311.88891079
  PAW double counting   =     23377.83946347   -23998.34197029
  entropy T*S    EENTRO =         0.00248722
  eigenvalues    EBANDS =      2151.08203249
  atomic energy  EATOM  =     25768.22672671
  Solvation  Ediel_sol  =         0.00000000
  ---------------------------------------------------
  free energy    TOTEN  =       158.95595159 eV

  energy without entropy =      158.95346436  energy(sigma->0) =      158.95512251


--------------------------------------------------------------------------------------------------------




--------------------------------------- Iteration      1(   3)  ---------------------------------------


     EDDAV:  cpu time  291.1337: real time  292.2354
       DOS:  cpu time    0.0490: real time    0.0489
    --------------------------------------------
      LOOP:  cpu time  291.1827: real time  292.2843

 eigenvalue-minimisations  : 86584
 total energy-change (2. order) :-0.4301947E+03  (-0.3553594E+03)
 number of electron     337.0000000 magnetization     160.0000000
 augmentation part      337.0000000 magnetization     160.0000000

 Free energy of the ion-electron system (eV)
  ---------------------------------------------------
  alpha Z        PSCENC =      1500.75848341
  Ewald energy   TEWEN  =    -21887.94991883
  -Hartree energ DENC   =     -7064.55026340
  -exchange      EXHF   =         0.00000000
  -V(xc)+E(xc)   XCENC  =       311.88891079
  PAW double counting   =     23377.83946347   -23998.34197029
  entropy T*S    EENTRO =         0.02604316
  eigenvalues    EBANDS =      1720.86375124
  atomic energy  EATOM  =     25768.22672671
  Solvation  Ediel_sol  =         0.00000000
  ---------------------------------------------------
  free energy    TOTEN  =      -271.23877372 eV

  energy without entropy =     -271.26481689  energy(sigma->0) =     -271.24745478


--------------------------------------------------------------------------------------------------------




--------------------------------------- Iteration      1(   4)  ---------------------------------------


     EDDAV:  cpu time  341.6321: real time  342.9594
       DOS:  cpu time    0.0530: real time    0.0534
    --------------------------------------------
      LOOP:  cpu time  341.6851: real time  343.0128

 eigenvalue-minimisations  :106304
 total energy-change (2. order) :-0.3024238E+02  (-0.2904205E+02)
 number of electron     337.0000000 magnetization     160.0000000
 augmentation part      337.0000000 magnetization     160.0000000

 Free energy of the ion-electron system (eV)
  ---------------------------------------------------
  alpha Z        PSCENC =      1500.75848341
  Ewald energy   TEWEN  =    -21887.94991883
  -Hartree energ DENC   =     -7064.55026340
  -exchange      EXHF   =         0.00000000
  -V(xc)+E(xc)   XCENC  =       311.88891079
  PAW double counting   =     23377.83946347   -23998.34197029
  entropy T*S    EENTRO =         0.03394824
  eigenvalues    EBANDS =      1690.61346399
  atomic energy  EATOM  =     25768.22672671
  Solvation  Ediel_sol  =         0.00000000
  ---------------------------------------------------
  free energy    TOTEN  =      -301.48115589 eV

  energy without entropy =     -301.51510413  energy(sigma->0) =     -301.49247197


--------------------------------------------------------------------------------------------------------




--------------------------------------- Iteration      1(   5)  ---------------------------------------


     EDDAV:  cpu time  334.3262: real time  335.5883
       DOS:  cpu time    0.0540: real time    0.0540
    CHARGE:  cpu time    4.8323: real time    4.9266
    MIXING:  cpu time    0.0050: real time    0.0824
    --------------------------------------------
      LOOP:  cpu time  339.2184: real time  340.6514

 eigenvalue-minimisations  :103456
 total energy-change (2. order) :-0.7754061E+00  (-0.7737570E+00)
 number of electron     337.0000141 magnetization     133.3714783
 augmentation part      118.3111748 magnetization     110.5775956

 Broyden mixing:
  rms(total) = 0.99979E+01    rms(broyden)= 0.99977E+01
  rms(prec ) = 0.10827E+02
  weight for this iteration     100.00

 Free energy of the ion-electron system (eV)
  ---------------------------------------------------
  alpha Z        PSCENC =      1500.75848341
  Ewald energy   TEWEN  =    -21887.94991883
  -Hartree energ DENC   =     -7064.55026340
  -exchange      EXHF   =         0.00000000
  -V(xc)+E(xc)   XCENC  =       311.88891079
  PAW double counting   =     23377.83946347   -23998.34197029
  entropy T*S    EENTRO =         0.03415832
  eigenvalues    EBANDS =      1689.83784786
  atomic energy  EATOM  =     25768.22672671
  Solvation  Ediel_sol  =         0.00000000
  ---------------------------------------------------
  free energy    TOTEN  =      -302.25656195 eV

  energy without entropy =     -302.29072026  energy(sigma->0) =     -302.26794805


--------------------------------------------------------------------------------------------------------




--------------------------------------- Iteration      1(   6)  ---------------------------------------


    POTLOK:  cpu time    0.1450: real time    0.1452
    SETDIJ:  cpu time    0.0260: real time    0.0266
     EDDAV:  cpu time  351.1056: real time  352.7503
       DOS:  cpu time    0.0530: real time    0.0533
    CHARGE:  cpu time    4.5163: real time    4.5355
    MIXING:  cpu time    0.0080: real time    0.4305
    --------------------------------------------
      LOOP:  cpu time  355.8529: real time  357.9414

 eigenvalue-minimisations  :109296
 total energy-change (2. order) :-0.8749730E+02  (-0.2471718E+02)
 number of electron     337.0000239 magnetization     123.5072356
 augmentation part      159.8709573 magnetization      98.2969766

 Broyden mixing:
  rms(total) = 0.12023E+02    rms(broyden)= 0.12022E+02
  rms(prec ) = 0.13520E+02
  weight for this iteration     100.00

 eigenvalues of (default mixing * dielectric matrix)
  average eigenvalue GAMMA=   0.5427
  0.5427

 Free energy of the ion-electron system (eV)
  ---------------------------------------------------
  alpha Z        PSCENC =      1500.75848341
  Ewald energy   TEWEN  =    -21887.94991883
  -Hartree energ DENC   =     -6100.35008362
  -exchange      EXHF   =         0.00000000
  -V(xc)+E(xc)   XCENC  =       230.33311199
  PAW double counting   =     25346.79973759   -25815.98039949
  entropy T*S    EENTRO =        -0.00575425
  eigenvalues    EBANDS =       568.41423376
  atomic energy  EATOM  =     25768.22672671
  Solvation  Ediel_sol  =         0.00000000
  ---------------------------------------------------
  free energy    TOTEN  =      -389.75386272 eV

  energy without entropy =     -389.74810847  energy(sigma->0) =     -389.75194463


--------------------------------------------------------------------------------------------------------




--------------------------------------- Iteration      1(   7)  ---------------------------------------


    POTLOK:  cpu time    0.1450: real time    0.1453
    SETDIJ:  cpu time    0.0270: real time    0.0265
     EDDAV:  cpu time  343.8597: real time  345.1774
       DOS:  cpu time    0.0540: real time    0.0542
    CHARGE:  cpu time    4.4583: real time    4.4689
    MIXING:  cpu time    0.0060: real time    0.1465
    --------------------------------------------
      LOOP:  cpu time  348.5500: real time  350.0188

 eigenvalue-minimisations  :106464
 total energy-change (2. order) : 0.8576524E+02  (-0.1815711E+02)
 number of electron     337.0000174 magnetization     110.9628759
 augmentation part      152.7166677 magnetization      90.2012891

 Broyden mixing:
  rms(total) = 0.67189E+01    rms(broyden)= 0.67187E+01
  rms(prec ) = 0.85147E+01
  weight for this iteration     100.00

 eigenvalues of (default mixing * dielectric matrix)
  average eigenvalue GAMMA=   0.5936
  0.8508  0.3364

 Free energy of the ion-electron system (eV)
  ---------------------------------------------------
  alpha Z        PSCENC =      1500.75848341
  Ewald energy   TEWEN  =    -21887.94991883
  -Hartree energ DENC   =     -6476.87952021
  -exchange      EXHF   =         0.00000000
  -V(xc)+E(xc)   XCENC  =       245.33992306
  PAW double counting   =     26860.85327087   -27461.33359286
  entropy T*S    EENTRO =         0.06436382
  eigenvalues    EBANDS =      1146.93164204
  atomic energy  EATOM  =     25768.22672671
  Solvation  Ediel_sol  =         0.00000000
  ---------------------------------------------------
  free energy    TOTEN  =      -303.98862199 eV

  energy without entropy =     -304.05298580  energy(sigma->0) =     -304.01007659


--------------------------------------------------------------------------------------------------------




--------------------------------------- Iteration      1(   8)  ---------------------------------------


    POTLOK:  cpu time    0.1440: real time    0.1451
    SETDIJ:  cpu time    0.0260: real time    0.0265
     EDDAV:  cpu time  371.6155: real time  373.0602
[...]
   43       -0.016  -0.119   0.002  -0.132
   44       -0.016  -0.119   0.002  -0.132
   45       -0.017  -0.118   0.003  -0.132
   46       -0.013  -0.109   0.000  -0.121
   47       -0.016  -0.119   0.002  -0.133
   48        0.010  -0.003   2.319   2.327
--------------------------------------------------
tot         -0.247  -2.345  49.635  47.043
 
    CHARGE:  cpu time    4.4423: real time    4.4500
    FORLOC:  cpu time    0.0220: real time    0.0294
    FORNL :  cpu time  101.8725: real time  102.2471
    STRESS:  cpu time  179.1168: real time  179.8365
    FORCOR:  cpu time    0.1620: real time    0.1851
    FORHAR:  cpu time    0.0350: real time    0.0587
    MIXING:  cpu time    0.0090: real time    0.0090
    OFIELD:  cpu time    0.0020: real time    0.0382

  FORCE on cell =-STRESS in cart. coord.  units (eV):
  Direction    XX          YY          ZZ          XY          YZ          ZX
  --------------------------------------------------------------------------------------
  Alpha Z  1500.75848  1500.75848  1500.75848
  Ewald   -7528.49194 -6953.28121 -7406.27660    -0.00000     0.00000     0.12573
  Hartree  2133.32671  2410.75238  2040.53448    -0.00000    -0.00000    -0.89736
  E(xc)   -1653.61352 -1655.90363 -1653.85105     0.00000     0.00000     0.09983
  Local    -426.08084 -1236.75547  -427.19355     0.00000     0.00000     1.50212
  n-local  -260.75781  -239.98095  -244.35623    -0.17493    -0.84228     0.44093
  augment  3344.51163  3326.19318  3317.77976     0.00000    -0.00000    -0.66237
  Kinetic  2880.59546  2846.58040  2859.68172    -0.18400     0.05236    -0.75395
  Fock        0.00000     0.00000     0.00000     0.00000     0.00000     0.00000
  -------------------------------------------------------------------------------------
  Total      -9.75181    -1.63682   -12.92298     0.00000     0.00000    -0.14507
  in kB     -24.41424    -4.09787   -32.35345     0.00000     0.00000    -0.36319
  external pressure =      -20.29 kB  Pullay stress =        0.00 kB


 VOLUME and BASIS-vectors are now :
 -----------------------------------------------------------------------------
  energy-cutoff  :      450.00
  volume of cell :      639.96
      direct lattice vectors                 reciprocal lattice vectors
    12.096069231  0.000000000  0.000000000     0.082671485  0.000000000  0.000000000
     0.000000000  7.472803602  0.000000000     0.000000000  0.133818584  0.000000000
     0.000000000  0.000000000  7.079865067     0.000000000  0.000000000  0.141245630

  length of vectors
    12.096069231  7.472803602  7.079865067     0.082671485  0.133818584  0.141245630


 FORCES acting on ions
    electron-ion (+dipol)            ewald-force                    non-local-force                 convergence-correction
 -----------------------------------------------------------------------------------------------
   0.104E+02 0.102E+01 0.353E+02   -.104E+02 -.100E+01 -.352E+02   -.587E+00 -.113E-01 0.184E+00   -.159E-01 0.178E-02 -.348E-02
   0.104E+02 -.102E+01 0.353E+02   -.104E+02 0.100E+01 -.352E+02   -.587E+00 0.113E-01 0.184E+00   -.159E-01 -.178E-02 -.348E-02
   0.693E+01 0.483E+01 -.304E+02   -.692E+01 -.492E+01 0.303E+02   -.617E+00 0.710E-01 -.902E-01   -.155E-02 -.135E-02 -.681E-02
   0.693E+01 -.483E+01 -.304E+02   -.692E+01 0.492E+01 0.303E+02   -.617E+00 -.710E-01 -.902E-01   -.155E-02 0.135E-02 -.681E-02
   0.157E+01 0.124E+01 0.353E+02   -.154E+01 -.127E+01 -.352E+02   -.652E+00 0.279E-01 0.181E+00   0.150E-01 0.592E-03 -.428E-02
   0.157E+01 -.124E+01 0.353E+02   -.154E+01 0.127E+01 -.352E+02   -.652E+00 -.279E-01 0.181E+00   0.150E-01 -.592E-03 -.428E-02
   0.573E+01 0.275E+00 -.351E+02   -.573E+01 -.274E+00 0.350E+02   -.618E+00 -.580E-02 -.171E+00   0.218E-02 0.155E-02 -.614E-02
   0.573E+01 -.275E+00 -.351E+02   -.573E+01 0.274E+00 0.350E+02   -.618E+00 0.580E-02 -.171E+00   0.218E-02 -.155E-02 -.614E-02
   -.609E+01 -.226E-12 0.353E+02   0.609E+01 0.127E-14 -.352E+02   0.611E+00 0.000E+00 0.171E+00   -.981E-03 0.574E-14 0.581E-02
   -.156E+01 0.361E-13 -.359E+02   0.148E+01 0.890E-14 0.359E+02   0.680E+00 0.000E+00 -.211E+00   -.153E-01 0.518E-13 0.385E-02
   -.607E+01 0.466E-13 0.353E+02   0.609E+01 -.272E-13 -.352E+02   0.647E+00 0.000E+00 0.179E+00   0.118E-02 0.139E-13 0.308E-02
   -.107E+02 -.319E-12 -.360E+02   0.107E+02 0.287E-13 0.359E+02   0.588E+00 0.000E+00 -.182E+00   0.156E-01 0.289E-13 0.302E-02
   -.610E+01 0.694E-13 0.353E+02   0.609E+01 0.159E-13 -.352E+02   0.628E+00 0.000E+00 0.176E+00   -.161E-03 0.103E-13 0.631E-02
   0.376E+01 0.117E-11 -.376E+02   -.369E+01 0.215E-13 0.375E+02   0.703E+00 0.000E+00 -.224E+00   -.198E-01 0.419E-13 0.425E-02
   -.159E+02 0.118E-11 -.376E+02   0.159E+02 0.278E-13 0.375E+02   0.578E+00 0.000E+00 -.197E+00   0.194E-01 0.448E-13 0.475E-02
   0.778E+02 0.147E+01 -.392E+02   -.774E+02 -.146E+01 0.399E+02   -.450E-01 -.164E-01 -.261E+00   -.165E-01 0.342E-02 0.166E-02
   0.778E+02 -.147E+01 -.392E+02   -.774E+02 0.146E+01 0.399E+02   -.450E-01 0.164E-01 -.261E+00   -.165E-01 -.342E-02 0.166E-02
   0.786E+02 0.947E+01 0.309E+02   -.782E+02 -.948E+01 -.316E+02   -.852E-01 0.396E-01 0.241E+00   -.148E-01 -.381E-02 0.827E-02
   0.786E+02 -.947E+01 0.309E+02   -.782E+02 0.948E+01 -.316E+02   -.852E-01 -.396E-01 0.241E+00   -.148E-01 0.381E-02 0.827E-02
   0.582E+02 0.845E+01 -.358E+02   -.578E+02 -.850E+01 0.365E+02   -.201E+00 0.523E-01 -.244E+00   0.278E-01 -.490E-02 0.418E-03
   0.582E+02 -.845E+01 -.358E+02   -.578E+02 0.850E+01 0.365E+02   -.201E+00 -.523E-01 -.244E+00   0.278E-01 0.490E-02 0.418E-03
   0.687E+02 0.568E+00 0.394E+02   -.683E+02 -.563E+00 -.402E+02   -.936E-01 -.765E-02 0.257E+00   0.110E-01 0.244E-02 0.253E-02
   0.687E+02 -.568E+00 0.394E+02   -.683E+02 0.563E+00 -.402E+02   -.936E-01 0.765E-02 0.257E+00   0.110E-01 -.244E-02 0.253E-02
   -.696E+02 0.133E-12 -.401E+02   0.692E+02 -.286E-13 0.408E+02   0.121E+00 0.000E+00 -.254E+00   -.102E-01 0.148E-12 -.175E-02
   -.651E+02 0.652E-13 0.417E+02   0.647E+02 -.112E-13 -.425E+02   0.205E+00 0.000E+00 0.280E+00   -.220E-01 0.817E-13 -.201E-02
   -.741E+02 0.121E-12 -.420E+02   0.738E+02 0.241E-13 0.427E+02   0.102E+00 0.000E+00 -.272E+00   0.111E-01 0.138E-12 -.103E-02
   -.764E+02 0.139E-12 0.406E+02   0.761E+02 0.197E-14 -.413E+02   0.253E-01 0.000E+00 0.277E+00   0.157E-01 0.605E-13 -.170E-04
   -.691E+02 0.122E-11 -.402E+02   0.687E+02 0.856E-15 0.410E+02   0.112E+00 0.000E+00 -.243E+00   -.979E-02 0.179E-12 -.320E-02
   -.552E+02 -.174E-11 0.484E+02   0.548E+02 0.435E-14 -.491E+02   0.193E+00 0.000E+00 0.297E+00   -.305E-01 0.623E-13 -.626E-02
   -.779E+02 0.236E-11 -.517E+02   0.776E+02 0.153E-13 0.522E+02   0.361E-01 0.000E+00 -.189E+00   0.135E-01 0.137E-12 0.716E-02
   -.793E+02 -.496E-11 0.416E+02   0.789E+02 0.184E-13 -.423E+02   0.118E+00 0.000E+00 0.232E+00   0.189E-01 0.984E-13 -.256E-03
   -.313E+02 0.322E+00 0.144E+02   0.316E+02 -.324E+00 -.141E+02   -.746E+00 -.144E-02 -.673E+00   -.659E-02 0.164E-02 0.292E-02
   -.313E+02 -.322E+00 0.144E+02   0.316E+02 0.324E+00 -.141E+02   -.746E+00 0.144E-02 -.673E+00   -.659E-02 -.164E-02 0.292E-02
   -.267E+02 0.578E+01 -.133E+02   0.269E+02 -.578E+01 0.130E+02   -.554E+00 0.205E+00 0.687E+00   -.115E-01 -.237E-02 0.615E-03
   -.267E+02 -.578E+01 -.133E+02   0.269E+02 0.578E+01 0.130E+02   -.554E+00 -.205E+00 0.687E+00   -.115E-01 0.237E-02 0.615E-03
   -.374E+02 0.421E+01 0.115E+02   0.377E+02 -.423E+01 -.111E+02   -.854E+00 0.991E-01 -.750E+00   0.945E-02 -.199E-02 0.359E-02
   -.374E+02 -.421E+01 0.115E+02   0.377E+02 0.423E+01 -.111E+02   -.854E+00 -.991E-01 -.750E+00   0.945E-02 0.199E-02 0.359E-02
   -.350E+02 0.436E+00 -.145E+02   0.353E+02 -.429E+00 0.142E+02   -.764E+00 0.380E-03 0.670E+00   0.507E-02 0.783E-03 0.271E-02
   -.350E+02 -.436E+00 -.145E+02   0.353E+02 0.429E+00 0.142E+02   -.764E+00 -.380E-03 0.670E+00   0.507E-02 -.783E-03 0.271E-02
   0.343E+02 -.172E-12 0.148E+02   -.346E+02 0.284E-15 -.145E+02   0.763E+00 0.000E+00 -.665E+00   -.542E-02 -.390E-14 -.266E-02
   0.348E+02 -.418E-13 -.150E+02   -.351E+02 -.451E-14 0.147E+02   0.757E+00 0.000E+00 0.660E+00   -.680E-02 0.241E-14 -.189E-02
   0.311E+02 -.280E-13 0.156E+02   -.314E+02 -.182E-13 -.153E+02   0.751E+00 0.000E+00 -.670E+00   0.763E-02 -.520E-14 -.144E-02
   0.316E+02 -.504E-13 -.147E+02   -.319E+02 -.957E-14 0.144E+02   0.746E+00 0.000E+00 0.668E+00   0.687E-02 -.521E-14 -.314E-02
   0.347E+02 -.125E-12 0.149E+02   -.351E+02 0.148E-14 -.146E+02   0.764E+00 0.000E+00 -.669E+00   -.511E-02 -.941E-14 -.248E-02
   0.362E+02 -.865E-12 -.159E+02   -.365E+02 -.175E-13 0.156E+02   0.756E+00 0.000E+00 0.683E+00   -.774E-02 -.608E-14 -.662E-03
   0.277E+02 0.158E-11 0.204E+02   -.279E+02 -.180E-13 -.200E+02   0.568E+00 0.000E+00 -.455E+00   0.976E-02 -.642E-14 -.562E-02
   0.312E+02 0.773E-12 -.148E+02   -.315E+02 -.865E-14 0.145E+02   0.754E+00 0.000E+00 0.675E+00   0.772E-02 -.127E-14 -.319E-02
   -.701E+01 -.233E-11 0.403E+02   0.696E+01 -.363E-13 -.402E+02   0.531E+00 0.000E+00 -.191E-01   -.378E-03 0.183E-13 0.361E-02
 -----------------------------------------------------------------------------------------------
   -.103E+00 0.433E-10 -.120E+00   0.547E-12 -.701E-13 -.163E-12   0.103E+00 0.000E+00 0.111E+00   0.422E-03 0.252E-11 0.103E-01
 
 
 POSITION                                       TOTAL-FORCE (eV/Angst)
 -----------------------------------------------------------------------------------
      2.92604      1.86820      1.26234        -0.629396      0.010756      0.265551
      2.92604      5.60460      1.26234        -0.629396     -0.010756      0.265551
      5.95006      1.86820      2.27759        -0.609665     -0.023154     -0.255803
      5.95006      5.60460      2.27759        -0.609665      0.023154     -0.255803
      8.97407      1.86820      1.26234        -0.604487      0.000314      0.269987
      8.97407      5.60460      1.26234        -0.604487     -0.000314      0.269987
     11.99809      1.86820      2.27759        -0.614127     -0.004085     -0.275193
     11.99809      5.60460      2.27759        -0.614127      0.004085     -0.275193
      0.09798      0.00000      4.80227         0.611136      0.000000      0.273811
      3.12200      0.00000      5.81752         0.592973      0.000000     -0.260271
      6.14601      0.00000      4.80227         0.673009      0.000000      0.259107
      9.17003      0.00000      5.81752         0.636018      0.000000     -0.269219
      0.09798      3.73640      4.80227         0.620818      0.000000      0.280133
      3.12200      3.73640      5.81752         0.751599      0.000000     -0.317176
      9.17003      3.73640      5.81752         0.582482      0.000000     -0.299294
      2.13738      1.86820      3.91729         0.282335     -0.001297      0.463906
      2.13738      5.60460      3.91729         0.282335      0.001297      0.463906
      5.16139      1.86820      6.70251         0.256094      0.024853     -0.476659
      5.16139      5.60460      6.70251         0.256094     -0.024853     -0.476659
      8.18541      1.86820      3.91729         0.214623     -0.000790      0.439643
      8.18541      5.60460      3.91729         0.214623      0.000790      0.439643
     11.20943      1.86820      6.70251         0.262554     -0.000858     -0.462240
     11.20943      5.60460      6.70251         0.262554      0.000858     -0.462240
      0.88664      0.00000      0.37736        -0.253595      0.000000      0.468228
      3.91066      0.00000      3.16258        -0.242152      0.000000     -0.470842
      6.93468      0.00000      0.37736        -0.227510      0.000000      0.461719
      9.95869      0.00000      3.16258        -0.275941      0.000000     -0.456524
      0.88664      3.73640      0.37736        -0.259056      0.000000      0.471656
      3.91066      3.73640      3.16258        -0.208769      0.000000     -0.441812
      6.93468      3.73640      0.37736        -0.332764      0.000000      0.414633
      9.95869      3.73640      3.16258        -0.273526      0.000000     -0.471360
      1.51503      1.86820      6.21825        -0.434167     -0.001557     -0.371939
      1.51503      5.60460      6.21825        -0.434167      0.001557     -0.371939
      4.53905      1.86820      4.40155        -0.325757      0.199583      0.441286
      4.53905      5.60460      4.40155        -0.325757     -0.199583      0.441286
      7.56307      1.86820      6.21825        -0.518415      0.072422     -0.430510
      7.56307      5.60460      6.21825        -0.518415     -0.072422     -0.430510
     10.58708      1.86820      4.40155        -0.436915      0.008366      0.386122
     10.58708      5.60460      4.40155        -0.436915     -0.008366      0.386122
      1.50898      0.00000      2.67831         0.412796      0.000000     -0.377621
      4.53300      0.00000      0.86162         0.464709      0.000000      0.335929
      7.55702      0.00000      2.67831         0.428464      0.000000     -0.372955
     10.58104      0.00000      0.86162         0.441922      0.000000      0.372962
      1.50898      3.73640      2.67831         0.430736      0.000000     -0.371455
      4.53300      3.73640      0.86162         0.419719      0.000000      0.372292
      7.55702      3.73640      2.67831         0.403819      0.000000     -0.067695
     10.58104      3.73640      0.86162         0.431007      0.000000      0.372582
      6.14601      3.73640      4.80227         0.486753      0.000000      0.104865
 -----------------------------------------------------------------------------------
    total drift:                                0.000372      0.000000      0.000969


--------------------------------------------------------------------------------------------------------



  FREE ENERGIE OF THE ION-ELECTRON SYSTEM (eV)
  ---------------------------------------------------
  free  energy   TOTEN  =      -313.14625524 eV

  energy  without entropy=     -313.22467967  energy(sigma->0) =     -313.17239671
 


--------------------------------------------------------------------------------------------------------


    POTLOK:  cpu time    0.1740: real time    0.2082


--------------------------------------------------------------------------------------------------------


     LOOP+:  cpu time13534.8004: real time13597.8316
    4ORBIT:  cpu time    0.0000: real time    0.0000
 


 total charge     
 
# of ion       s       p       d       tot
------------------------------------------
    1        0.258   0.290   5.057   5.605
    2        0.258   0.290   5.057   5.605
    3        0.258   0.289   5.056   5.603
    4        0.258   0.289   5.056   5.603
    5        0.258   0.289   5.058   5.606
    6        0.258   0.289   5.058   5.606
    7        0.258   0.290   5.058   5.606
    8        0.258   0.290   5.058   5.606
    9        0.258   0.290   5.058   5.606
   10        0.258   0.290   5.058   5.605
   11        0.259   0.290   5.058   5.607
   12        0.258   0.290   5.057   5.605
   13        0.258   0.290   5.057   5.605
   14        0.257   0.289   5.057   5.604
   15        0.257   0.289   5.058   5.605
   16        0.448   0.523   8.432   9.403
   17        0.448   0.523   8.432   9.403
   18        0.447   0.520   8.432   9.399
   19        0.447   0.520   8.432   9.399
   20        0.447   0.521   8.432   9.399
   21        0.447   0.521   8.432   9.399
   22        0.448   0.523   8.432   9.403
   23        0.448   0.523   8.432   9.403
   24        0.447   0.523   8.432   9.403
   25        0.448   0.521   8.433   9.403
   26        0.447   0.523   8.433   9.403
   27        0.448   0.522   8.433   9.403
   28        0.448   0.523   8.432   9.403
   29        0.447   0.521   8.431   9.399
   30        0.447   0.520   8.431   9.398
   31        0.448   0.523   8.432   9.403
   32        1.104   1.337   0.128   2.569
   33        1.104   1.337   0.128   2.569
   34        1.103   1.325   0.129   2.558
   35        1.103   1.325   0.129   2.558
   36        1.104   1.330   0.129   2.563
   37        1.104   1.330   0.129   2.563
   38        1.104   1.337   0.128   2.569
   39        1.104   1.337   0.128   2.569
   40        1.104   1.337   0.128   2.569
   41        1.104   1.337   0.128   2.569
   42        1.104   1.337   0.129   2.569
   43        1.104   1.337   0.128   2.569
   44        1.104   1.337   0.128   2.569
   45        1.104   1.338   0.128   2.570
   46        1.104   1.326   0.129   2.559
   47        1.104   1.337   0.128   2.569
   48        0.327   0.374   6.249   6.950
--------------------------------------------------
tot         29.017  34.410 219.081 282.508
 


 magnetization (x)
 
# of ion       s       p       d       tot
------------------------------------------
    1        0.019   0.011   3.034   3.064
    2        0.019   0.011   3.034   3.064
    3        0.020   0.012   3.045   3.077
    4        0.020   0.012   3.045   3.077
    5        0.019   0.011   3.030   3.059
    6        0.019   0.011   3.030   3.059
    7        0.019   0.010   3.027   3.056
    8        0.019   0.010   3.027   3.056
    9        0.019   0.010   3.029   3.058
   10        0.019   0.011   3.034   3.063
   11        0.018   0.012   3.020   3.050
   12        0.019   0.011   3.034   3.064
   13        0.019   0.010   3.034   3.063
   14        0.019   0.011   3.024   3.054
   15        0.019   0.011   3.017   3.047
   16       -0.019  -0.042   0.118   0.057
   17       -0.019  -0.042   0.118   0.057
   18       -0.018  -0.040   0.106   0.048
   19       -0.018  -0.040   0.106   0.048
   20       -0.018  -0.040   0.116   0.058
   21       -0.018  -0.040   0.116   0.058
   22       -0.019  -0.042   0.115   0.053
   23       -0.019  -0.042   0.115   0.053
   24       -0.019  -0.042   0.113   0.052
   25       -0.018  -0.040   0.121   0.063
   26       -0.019  -0.042   0.114   0.053
   27       -0.019  -0.041   0.116   0.057
   28       -0.019  -0.042   0.114   0.053
   29       -0.018  -0.041   0.106   0.047
   30       -0.018  -0.039   0.114   0.056
   31       -0.020  -0.042   0.116   0.054
   32       -0.016  -0.119   0.002  -0.132
   33       -0.016  -0.119   0.002  -0.132
   34       -0.013  -0.108   0.000  -0.121
   35       -0.013  -0.108   0.000  -0.121
   36       -0.014  -0.111   0.001  -0.124
   37       -0.014  -0.111   0.001  -0.124
   38       -0.016  -0.119   0.002  -0.132
   39       -0.016  -0.119   0.002  -0.132
   40       -0.016  -0.119   0.002  -0.133
   41       -0.015  -0.118   0.002  -0.131
   42       -0.016  -0.117   0.002  -0.131
   43       -0.016  -0.119   0.002  -0.132
   44       -0.016  -0.119   0.002  -0.132
   45       -0.017  -0.118   0.003  -0.132
   46       -0.013  -0.109   0.000  -0.121
   47       -0.016  -0.119   0.002  -0.133
   48        0.010  -0.003   2.319   2.327
--------------------------------------------------
tot         -0.247  -2.345  49.635  47.043
 

 total amount of memory used by VASP MPI-rank0   552438. kBytes
=======================================================================

   base      :      30000. kBytes
   nonl-proj :      82243. kBytes
   fftplans  :       3728. kBytes
   grid      :      10440. kBytes
   one-center:        248. kBytes
   wavefun   :     425779. kBytes
 
  
  
 General timing and accounting informations for this job:
 ========================================================
  
                  Total CPU time used (sec):    13753.542
                            User time (sec):    13643.096
                          System time (sec):      110.446
                         Elapsed time (sec):    13826.159
  
                   Maximum memory used (kb):      784760.
                   Average memory used (kb):           0.
  
                          Minor page faults:        71391
                          Major page faults:         1149
                 Voluntary context switches:         9757
