 running on   24 total cores
 distrk:  each k-point on   24 cores,    1 groups
 distr:  one band on    6 cores,    4 groups
 using from now: INCAR     
 vasp.6.1.1 19Jun20 (build Nov 30 2020 11:51:22) complex                        
  
 POSCAR found type information on POSCAR MnNiGeFe
 POSCAR found :  4 types and      48 ions
 scaLAPACK will be used
 -----------------------------------------------------------------------------
|                                                                             |
|               ----> ADVICE to this user running VASP <----                  |
|                                                                             |
|     You have a (more or less) 'large supercell' and for larger cells it     |
|     might be more efficient to use real-space projection operators.         |
|     Therefore, try LREAL= Auto in the INCAR file.                           |
|     Mind: For very accurate calculation, you might also keep the            |
|     reciprocal projection scheme (i.e. LREAL=.FALSE.).                      |
|                                                                             |
 -----------------------------------------------------------------------------

 LDA part: xc-table for Pade appr. of Perdew
 POSCAR, INCAR and KPOINTS ok, starting setup
 FFT: planning ...
 WAVECAR not read
 entering main loop
       N       E                     dE             d eps       ncg     rms          rms(c)
DAV:   1     0.274731186881E+04    0.27473E+04   -0.10998E+05 86400   0.103E+03
DAV:   2     0.153322605022E+03   -0.25940E+04   -0.23135E+04 86400   0.261E+02
DAV:   3    -0.272358987008E+03   -0.42568E+03   -0.35162E+03 86608   0.122E+02
DAV:   4    -0.302117981895E+03   -0.29759E+02   -0.28578E+02106448   0.379E+01
DAV:   5    -0.302882926323E+03   -0.76494E+00   -0.76331E+00103392   0.632E+00    0.989E+01
DAV:   6    -0.394500969632E+03   -0.91618E+02   -0.25430E+02109232   0.115E+02    0.122E+02
DAV:   7    -0.303539826139E+03    0.90961E+02   -0.17997E+02106432   0.834E+01    0.668E+01
DAV:   8    -0.338992104919E+03   -0.35452E+02   -0.59466E+01116752   0.483E+01    0.998E+01
DAV:   9    -0.321069162095E+03    0.17923E+02   -0.40695E+01125200   0.377E+01    0.503E+01
DAV:  10    -0.324417127041E+03   -0.33480E+01   -0.40619E+01119088   0.633E+01    0.775E+01
DAV:  11    -0.301047908727E+03    0.23369E+02   -0.29568E+01129240   0.459E+01    0.293E+01
DAV:  12    -0.306821388912E+03   -0.57735E+01   -0.96389E+00122704   0.348E+01    0.318E+01
DAV:  13    -0.307829108339E+03   -0.10077E+01   -0.69531E+00126192   0.245E+01    0.179E+01
DAV:  14    -0.312612769385E+03   -0.47837E+01   -0.46777E+00126784   0.227E+01    0.200E+01
DAV:  15    -0.312335756739E+03    0.27701E+00   -0.36414E+00118496   0.188E+01    0.953E+00
DAV:  16    -0.312859730707E+03   -0.52397E+00   -0.16711E+00116392   0.108E+01    0.828E+00
DAV:  17    -0.313015441375E+03   -0.15571E+00   -0.13197E+00114696   0.105E+01    0.617E+00
DAV:  18    -0.312994449492E+03    0.20992E-01   -0.45503E-01119960   0.614E+00    0.372E+00
DAV:  19    -0.312948536602E+03    0.45913E-01   -0.27622E-01115440   0.444E+00    0.217E+00
DAV:  20    -0.312969464239E+03   -0.20928E-01   -0.15664E-01111216   0.220E+00    0.152E+00
DAV:  21    -0.312980912125E+03   -0.11448E-01   -0.38831E-02113656   0.163E+00    0.161E+00
DAV:  22    -0.312975500478E+03    0.54116E-02   -0.25942E-02112872   0.135E+00    0.102E+00
DAV:  23    -0.312979150206E+03   -0.36497E-02   -0.11722E-02118656   0.584E-01    0.107E+00
DAV:  24    -0.312977362558E+03    0.17876E-02   -0.48294E-03111360   0.554E-01    0.775E-01
DAV:  25    -0.312976137710E+03    0.12248E-02   -0.22652E-03119832   0.413E-01    0.534E-01
DAV:  26    -0.312976700391E+03   -0.56268E-03   -0.13243E-03123416   0.293E-01    0.456E-01
DAV:  27    -0.312976538890E+03    0.16150E-03   -0.55789E-04114464   0.202E-01    0.368E-01
DAV:  28    -0.312976336690E+03    0.20220E-03   -0.31090E-04126040   0.116E-01    0.254E-01
DAV:  29    -0.312976333713E+03    0.29765E-05   -0.12945E-04137296   0.669E-02    0.213E-01
DAV:  30    -0.312976335192E+03   -0.14786E-05   -0.41589E-05129440   0.572E-02    0.148E-01
DAV:  31    -0.312976343066E+03   -0.78742E-05   -0.34055E-05155800   0.346E-02    0.955E-02
DAV:  32    -0.312976343655E+03   -0.58847E-06   -0.13764E-05128696   0.322E-02    0.777E-02
DAV:  33    -0.312976347339E+03   -0.36844E-05   -0.74853E-06122240   0.221E-02    0.489E-02
DAV:  34    -0.312976348920E+03   -0.15807E-05   -0.48699E-06106648   0.142E-02    0.326E-02
DAV:  35    -0.312976349060E+03   -0.14016E-06   -0.29880E-06 71384   0.109E-02
   1 F= -.31297635E+03 E0= -.31300465E+03  d E =0.849123E-01  mag=    47.8611
