 vasp.6.1.1 19Jun20 (build Nov 30 2020 11:51:22) complex                        
  
 executed on             LinuxIFC date 2021.03.24  01:30:39
 running on   24 total cores
 distrk:  each k-point on   24 cores,    1 groups
 distr:  one band on NCORE=   6 cores,    4 groups


--------------------------------------------------------------------------------------------------------


 INCAR:
 POTCAR:    PAW_PBE Mn 06Sep2000                  
 POTCAR:    PAW_PBE Ni 02Aug2007                  
 POTCAR:    PAW_PBE Ge 05Jan2001                  
 POTCAR:    PAW_PBE Fe 06Sep2000                  
 POTCAR:    PAW_PBE Mn 06Sep2000                  
   SHA256 =  791c87526310ff945dc83749a51ee60ee299d345ff72743aeb14609b9ed68bfc Mn/POTCAR             
   COPYR  = (c) Copyright 06Sep2000 Georg Kresse                                                    
   COPYR  = This file is part of the software VASP. Any use, copying, and all other rights are regul
   COPYR  = If you do not have a valid VASP license, you may not use, copy or distribute this file. 
   VRHFIN =Mn: d6 s1                                                                                
   LEXCH  = PE                                                                                      
   EATOM  =   416.7541 eV,   30.6306 Ry                                                             
                                                                                                    
   TITEL  = PAW_PBE Mn 06Sep2000                                                                    
   LULTRA =        F    use ultrasoft PP ?                                                          
   IUNSCR =        1    unscreen: 0-lin 1-nonlin 2-no                                               
   RPACOR =    2.000    partial core radius                                                         
   POMASS =   54.938; ZVAL   =    7.000    mass and valenz                                          
   RCORE  =    2.300    outmost cutoff radius                                                       
   RWIGS  =    2.500; RWIGS  =    1.323    wigner-seitz radius (au A)                               
   ENMAX  =  269.864; ENMIN  =  202.398 eV                                                          
   RCLOC  =    1.725    cutoff for local pot                                                        
   LCOR   =        T    correct aug charges                                                         
   LPAW   =        T    paw PP                                                                      
   EAUG   =  500.711                                                                                
   DEXC   =    0.000                                                                                
   RMAX   =    2.343    core radius for proj-oper                                                   
   RAUG   =    1.300    factor for augmentation sphere                                              
   RDEP   =    2.338    radius for radial grids                                                     
   RDEPT  =    1.911    core radius for aug-charge                                                  
                                                                                                    
   Atomic configuration                                                                             
    9 entries                                                                                       
     n  l   j            E        occ.                                                              
     1  0  0.50     -6424.8288   2.0000                                                             
     2  0  0.50      -739.1154   2.0000                                                             
     2  1  1.50      -625.3949   6.0000                                                             
     3  0  0.50       -81.6100   2.0000                                                             
     3  1  1.50       -50.4667   6.0000                                                             
     3  2  2.50        -3.3745   6.0000                                                             
     4  0  0.50        -4.1331   1.0000                                                             
     4  1  0.50        -4.0817   0.0000                                                             
     4  3  2.50        -1.3606   0.0000                                                             
   Description                                                                                      
     l       E           TYP  RCUT    TYP  RCUT                                                     
     2     -3.3744664     23  2.300                                                                 
     2     -4.7350490     23  2.300                                                                 
     0     -4.1331408     23  2.300                                                                 
     0      7.6656614     23  2.300                                                                 
     1     -2.7211652     23  2.300                                                                 
     1     20.4087390     23  2.300                                                                 
  local pseudopotential read in
  partial core-charges read in
  partial kinetic energy density read in
  atomic valenz-charges read in
  non local Contribution for L=           2  read in
    real space projection operators read in
  non local Contribution for L=           2  read in
    real space projection operators read in
  non local Contribution for L=           0  read in
    real space projection operators read in
  non local Contribution for L=           0  read in
    real space projection operators read in
  non local Contribution for L=           1  read in
    real space projection operators read in
  non local Contribution for L=           1  read in
    real space projection operators read in
    PAW grid and wavefunctions read in
 
   number of l-projection  operators is LMAX  =           6
   number of lm-projection operators is LMMAX =          18
 
 POTCAR:    PAW_PBE Ni 02Aug2007                  
   SHA256 =  0534bc51ca8003dfef23f56753fef9fdd3e22eac8d719fccacb59f3e6b7a69c7 Ni/POTCAR             
   COPYR  = (c) Copyright 02Aug2007 Georg Kresse                                                    
   COPYR  = This file is part of the software VASP. Any use, copying, and all other rights are regul
   COPYR  = If you do not have a valid VASP license, you may not use, copy or distribute this file. 
   VRHFIN =Ni:                                                                                      
   LEXCH  = PE                                                                                      
   EATOM  =  1077.6739 eV,   79.2068 Ry                                                             
                                                                                                    
   TITEL  = PAW_PBE Ni 02Aug2007                                                                    
   LULTRA =        F    use ultrasoft PP ?                                                          
   IUNSCR =        1    unscreen: 0-lin 1-nonlin 2-no                                               
   RPACOR =    2.000    partial core radius                                                         
   POMASS =   58.690; ZVAL   =   10.000    mass and valenz                                          
   RCORE  =    2.300    outmost cutoff radius                                                       
   RWIGS  =    2.430; RWIGS  =    1.286    wigner-seitz radius (au A)                               
   ENMAX  =  269.532; ENMIN  =  202.149 eV                                                          
   RCLOC  =    1.201    cutoff for local pot                                                        
   LCOR   =        T    correct aug charges                                                         
   LPAW   =        T    paw PP                                                                      
   EAUG   =  544.565                                                                                
   DEXC   =    0.000                                                                                
   RMAX   =    2.357    core radius for proj-oper                                                   
   RAUG   =    1.300    factor for augmentation sphere                                              
   RDEP   =    2.390    radius for radial grids                                                     
   RDEPT  =    1.838    core radius for aug-charge                                                  
                                                                                                    
   Atomic configuration                                                                             
    9 entries                                                                                       
     n  l   j            E        occ.                                                              
     1  0  0.50     -8206.4253   2.0000                                                             
     2  0  0.50      -976.1748   2.0000                                                             
     2  1  1.50      -839.0571   6.0000                                                             
     3  0  0.50      -105.9991   2.0000                                                             
     3  1  1.50       -66.4603   6.0000                                                             
     3  2  2.50        -4.6458   9.0000                                                             
     4  0  0.50        -4.4926   1.0000                                                             
     4  1  1.50        -4.0817   0.0000                                                             
     4  3  2.50        -1.3606   0.0000                                                             
   Description                                                                                      
     l       E           TYP  RCUT    TYP  RCUT                                                     
     2     -4.6457903     23  2.300                                                                 
     2     -6.0063729     23  2.300                                                                 
     0     -4.4925590     23  2.300                                                                 
     0      5.0102601     23  2.300                                                                 
     1     -2.7211652     23  2.300                                                                 
     1     16.5183231     23  2.300                                                                 
  local pseudopotential read in
  partial core-charges read in
  partial kinetic energy density read in
  atomic valenz-charges read in
  non local Contribution for L=           2  read in
    real space projection operators read in
  non local Contribution for L=           2  read in
    real space projection operators read in
  non local Contribution for L=           0  read in
    real space projection operators read in
  non local Contribution for L=           0  read in
    real space projection operators read in
  non local Contribution for L=           1  read in
    real space projection operators read in
  non local Contribution for L=           1  read in
    real space projection operators read in
    PAW grid and wavefunctions read in
 
   number of l-projection  operators is LMAX  =           6
   number of lm-projection operators is LMMAX =          18
 
 POTCAR:    PAW_PBE Ge 05Jan2001                  
   SHA256 =  7ff11deedcda39f1950abeda971a84a1f98a719a97bc9679a0df455c008734f8 Ge/POTCAR             
   COPYR  = (c) Copyright 05Jan2001 Georg Kresse                                                    
   COPYR  = This file is part of the software VASP. Any use, copying, and all other rights are regul
   COPYR  = If you do not have a valid VASP license, you may not use, copy or distribute this file. 
   VRHFIN =Ge: s2p2                                                                                 
   LEXCH  = PE                                                                                      
   EATOM  =   104.9960 eV,    7.7170 Ry                                                             
                                                                                                    
   TITEL  = PAW_PBE Ge 05Jan2001                                                                    
   LULTRA =        F    use ultrasoft PP ?                                                          
   IUNSCR =        1    unscreen: 0-lin 1-nonlin 2-no                                               
   RPACOR =    2.170    partial core radius                                                         
   POMASS =   72.610; ZVAL   =    4.000    mass and valenz                                          
   RCORE  =    2.300    outmost cutoff radius                                                       
   RWIGS  =    2.300; RWIGS  =    1.217    wigner-seitz radius (au A)                               
   ENMAX  =  173.807; ENMIN  =  130.355 eV                                                          
   ICORE  =        3    local potential                                                             
   LCOR   =        T    correct aug charges                                                         
   LPAW   =        T    paw PP                                                                      
   EAUG   =  385.843                                                                                
   DEXC   =    0.000                                                                                
   RMAX   =    2.342    core radius for proj-oper                                                   
   RAUG   =    1.300    factor for augmentation sphere                                              
   RDEP   =    2.318    radius for radial grids                                                     
   RDEPT  =    2.103    core radius for aug-charge                                                  
                                                                                                    
   Atomic configuration                                                                             
   10 entries                                                                                       
     n  l   j            E        occ.                                                              
     1  0  0.50    -10959.8463   2.0000                                                             
     2  0  0.50     -1371.6056   2.0000                                                             
     2  1  1.50     -1198.4791   6.0000                                                             
     3  0  0.50      -168.4733   2.0000                                                             
     3  1  1.50      -115.6019   6.0000                                                             
     3  2  2.50       -29.3106  10.0000                                                             
     4  0  0.50       -11.7309   2.0000                                                             
     4  1  0.50        -3.8952   2.0000                                                             
     4  2  1.50        -4.0817   0.0000                                                             
     4  3  2.50        -4.0817   0.0000                                                             
   Description                                                                                      
     l       E           TYP  RCUT    TYP  RCUT                                                     
     0    -11.7309493     23  2.300                                                                 
     0     -7.4578696     23  2.300                                                                 
     1     -3.8952261     23  2.300                                                                 
     1      6.1178114     23  2.300                                                                 
     2     -4.0817478     23  2.300                                                                 
     3     -1.3605826      7  2.300                                                                 
  local pseudopotential read in
  partial core-charges read in
  partial kinetic energy density read in
  atomic valenz-charges read in
  non local Contribution for L=           0  read in
    real space projection operators read in
  non local Contribution for L=           0  read in
    real space projection operators read in
  non local Contribution for L=           1  read in
    real space projection operators read in
  non local Contribution for L=           1  read in
    real space projection operators read in
  non local Contribution for L=           2  read in
    real space projection operators read in
    PAW grid and wavefunctions read in
 
   number of l-projection  operators is LMAX  =           5
   number of lm-projection operators is LMMAX =          13
 
 POTCAR:    PAW_PBE Fe 06Sep2000                  
   SHA256 =  cd5a22d9368cc8b5cc476bea79732366149640da08ac9009b0e1b7fc627eea28 Fe/POTCAR             
   COPYR  = (c) Copyright 06Sep2000 Georg Kresse                                                    
   COPYR  = This file is part of the software VASP. Any use, copying, and all other rights are regul
   COPYR  = If you do not have a valid VASP license, you may not use, copy or distribute this file. 
   VRHFIN =Fe:  d7 s1                                                                               
   LEXCH  = PE                                                                                      
   EATOM  =   594.3153 eV,   43.6809 Ry                                                             
                                                                                                    
   TITEL  = PAW_PBE Fe 06Sep2000                                                                    
   LULTRA =        F    use ultrasoft PP ?                                                          
   IUNSCR =        1    unscreen: 0-lin 1-nonlin 2-no                                               
   RPACOR =    2.000    partial core radius                                                         
   POMASS =   55.847; ZVAL   =    8.000    mass and valenz                                          
   RCORE  =    2.300    outmost cutoff radius                                                       
   RWIGS  =    2.460; RWIGS  =    1.302    wigner-seitz radius (au A)                               
   ENMAX  =  267.882; ENMIN  =  200.911 eV                                                          
   RCLOC  =    1.701    cutoff for local pot                                                        
   LCOR   =        T    correct aug charges                                                         
   LPAW   =        T    paw PP                                                                      
   EAUG   =  511.368                                                                                
   DEXC   =    0.000                                                                                
   RMAX   =    2.356    core radius for proj-oper                                                   
   RAUG   =    1.300    factor for augmentation sphere                                              
   RDEP   =    2.442    radius for radial grids                                                     
   RDEPT  =    1.890    core radius for aug-charge                                                  
                                                                                                    
   Atomic configuration                                                                             
    9 entries                                                                                       
     n  l   j            E        occ.                                                              
     1  0  0.50     -6993.8440   2.0000                                                             
     2  0  0.50      -814.6047   2.0000                                                             
     2  1  1.50      -693.3689   6.0000                                                             
     3  0  0.50       -89.4732   2.0000                                                             
     3  1  1.50       -55.6373   6.0000                                                             
     3  2  2.50        -3.8151   7.0000                                                             
     4  0  0.50        -4.2551   1.0000                                                             
     4  1  1.50        -3.4015   0.0000                                                             
     4  3  2.50        -1.3606   0.0000                                                             
   Description                                                                                      
     l       E           TYP  RCUT    TYP  RCUT                                                     
     2     -3.8151135     23  2.300                                                                 
     2     -5.1756961     23  2.300                                                                 
     0     -4.2550963     23  2.300                                                                 
     0      7.2035603     23  2.300                                                                 
     1     -2.7211652     23  2.300                                                                 
     1     18.4316424     23  2.300                                                                 
  local pseudopotential read in
  partial core-charges read in
  partial kinetic energy density read in
  atomic valenz-charges read in
  non local Contribution for L=           2  read in
    real space projection operators read in
  non local Contribution for L=           2  read in
    real space projection operators read in
  non local Contribution for L=           0  read in
    real space projection operators read in
  non local Contribution for L=           0  read in
    real space projection operators read in
  non local Contribution for L=           1  read in
    real space projection operators read in
  non local Contribution for L=           1  read in
    real space projection operators read in
    PAW grid and wavefunctions read in
 
   number of l-projection  operators is LMAX  =           6
   number of lm-projection operators is LMMAX =          18
 
 -----------------------------------------------------------------------------
|                                                                             |
|               ----> ADVICE to this user running VASP <----                  |
|                                                                             |
|     You have a (more or less) 'large supercell' and for larger cells it     |
|     might be more efficient to use real-space projection operators.         |
|     Therefore, try LREAL= Auto in the INCAR file.                           |
|     Mind: For very accurate calculation, you might also keep the            |
|     reciprocal projection scheme (i.e. LREAL=.FALSE.).                      |
|                                                                             |
 -----------------------------------------------------------------------------

  PAW_PBE Mn 06Sep2000                  :
 energy of atom  1       EATOM= -416.7541
 kinetic energy error for atom=    0.0033 (will be added to EATOM!!)
  PAW_PBE Ni 02Aug2007                  :
 energy of atom  2       EATOM=-1077.6739
 kinetic energy error for atom=    0.0038 (will be added to EATOM!!)
  PAW_PBE Ge 05Jan2001                  :
 energy of atom  3       EATOM= -104.9960
 kinetic energy error for atom=    0.0003 (will be added to EATOM!!)
  PAW_PBE Fe 06Sep2000                  :
 energy of atom  4       EATOM= -594.3153
 kinetic energy error for atom=    0.0034 (will be added to EATOM!!)
 
 
 POSCAR: MnNiGe_orth
  positions in direct lattice
  velocities in cartesian coordinates
 exchange correlation table for  LEXCH =        8
   RHO(1)=    0.500       N(1)  =     2000
   RHO(2)=  100.500       N(2)  =     4000
 


--------------------------------------------------------------------------------------------------------


 ion  position               nearest neighbor table
   1  0.242  0.250  0.178-  41 2.51  45 2.51  32 2.56  44 2.75  40 2.75  16 2.78  18 2.79  29 2.86
                            25 2.86  24 2.92  28 2.92  14 3.16  10 3.16
   2  0.242  0.750  0.178-  41 2.51  45 2.51  33 2.56  44 2.75  40 2.75  17 2.78  19 2.79  29 2.86
                            25 2.86  24 2.92  28 2.92  14 3.16  10 3.16
   3  0.492  0.250  0.322-  42 2.51  46 2.51  34 2.56  45 2.75  41 2.75  18 2.78  20 2.79  30 2.86
                            26 2.86  25 2.92  29 2.92  11 3.16
   4  0.492  0.750  0.322-  42 2.51  46 2.51  35 2.56  45 2.75  41 2.75  19 2.78  21 2.79  30 2.86
                            26 2.86  25 2.92  29 2.92  11 3.16
   5  0.742  0.250  0.178-  43 2.51  47 2.51  36 2.56  46 2.75  42 2.75  20 2.78  22 2.79  31 2.86
                            27 2.86  26 2.92  30 2.92  15 3.16  12 3.16
   6  0.742  0.750  0.178-  43 2.51  47 2.51  37 2.56  46 2.75  42 2.75  21 2.78  23 2.79  31 2.86
                            27 2.86  26 2.92  30 2.92  15 3.16  12 3.16
   7  0.992  0.250  0.322-  40 2.51  44 2.51  38 2.56  43 2.75  47 2.75  22 2.78  16 2.79  28 2.86
                            24 2.86  31 2.92  27 2.92  13 3.16   9 3.16
   8  0.992  0.750  0.322-  40 2.51  44 2.51  39 2.56  43 2.75  47 2.75  23 2.78  17 2.79  28 2.86
                            24 2.86  31 2.92  27 2.92  13 3.16   9 3.16
   9  0.008  0.000  0.678-  38 2.51  39 2.51  40 2.56  33 2.75  32 2.75  24 2.78  27 2.79  23 2.86
                            22 2.86  17 2.92  16 2.92   8 3.16   7 3.16
  10  0.258  0.000  0.822-  32 2.51  33 2.51  41 2.56  35 2.75  34 2.75  25 2.78  24 2.79  17 2.86
                            16 2.86  19 2.92  18 2.92   2 3.16   1 3.16
  11  0.508  0.000  0.678-  34 2.51  35 2.51  42 2.56  37 2.75  36 2.75  26 2.78  25 2.79  19 2.86
                            18 2.86  21 2.92  20 2.92   4 3.16   3 3.16
  12  0.758  0.000  0.822-  36 2.51  37 2.51  43 2.56  39 2.75  38 2.75  27 2.78  26 2.79  21 2.86
                            20 2.86  23 2.92  22 2.92   6 3.16   5 3.16
  13  0.008  0.500  0.678-  38 2.51  39 2.51  44 2.56  33 2.75  32 2.75  28 2.78  31 2.79  23 2.86
                            22 2.86  17 2.92  16 2.92   8 3.16   7 3.16
  14  0.258  0.500  0.822-  32 2.51  33 2.51  45 2.56  35 2.75  34 2.75  29 2.78  28 2.79  17 2.86
                            16 2.86  19 2.92  18 2.92   2 3.16   1 3.16
  15  0.758  0.500  0.822-  36 2.51  37 2.51  47 2.56  39 2.75  38 2.75  31 2.78  30 2.79  21 2.86
                            20 2.86  23 2.92  22 2.92   6 3.16   5 3.16
  16  0.177  0.250  0.553-  40 2.34  44 2.34  32 2.40  34 2.46  25 2.70  29 2.70   1 2.78   7 2.79
                            10 2.86  14 2.86  13 2.92   9 2.92
  17  0.177  0.750  0.553-  40 2.34  44 2.34  33 2.40  35 2.46  25 2.70  29 2.70   2 2.78   8 2.79
                            10 2.86  14 2.86  13 2.92   9 2.92
  18  0.427  0.250  0.947-  41 2.34  45 2.34  34 2.40  36 2.46  26 2.70  30 2.70   3 2.78   1 2.79
                            11 2.86  48 2.86  14 2.92  10 2.92
  19  0.427  0.750  0.947-  41 2.34  45 2.34  35 2.40  37 2.46  26 2.70  30 2.70   4 2.78   2 2.79
                            11 2.86  48 2.86  14 2.92  10 2.92
  20  0.677  0.250  0.553-  42 2.34  46 2.34  36 2.40  38 2.46  27 2.70  31 2.70   5 2.78   3 2.79
                            12 2.86  15 2.86  11 2.92  48 2.92
  21  0.677  0.750  0.553-  42 2.34  46 2.34  37 2.40  39 2.46  27 2.70  31 2.70   6 2.78   4 2.79
                            12 2.86  15 2.86  11 2.92  48 2.92
  22  0.927  0.250  0.947-  43 2.34  47 2.34  38 2.40  32 2.46  24 2.70  28 2.70   7 2.78   5 2.79
                             9 2.86  13 2.86  12 2.92  15 2.92
  23  0.927  0.750  0.947-  43 2.34  47 2.34  39 2.40  33 2.46  24 2.70  28 2.70   8 2.78   6 2.79
                             9 2.86  13 2.86  12 2.92  15 2.92
  24  0.073  0.000  0.053-  32 2.34  33 2.34  40 2.40  43 2.46  22 2.70  23 2.70   9 2.78  10 2.79
                             7 2.86   8 2.86   1 2.92   2 2.92
  25  0.323  0.000  0.447-  34 2.34  35 2.34  41 2.40  40 2.46  16 2.70  17 2.70  10 2.78  11 2.79
                             1 2.86   2 2.86   3 2.92   4 2.92
  26  0.573  0.000  0.053-  36 2.34  37 2.34  42 2.40  41 2.46  18 2.70  19 2.70  11 2.78  12 2.79
                             3 2.86   4 2.86   5 2.92   6 2.92
  27  0.823  0.000  0.447-  38 2.34  39 2.34  43 2.40  42 2.46  20 2.70  21 2.70  12 2.78   9 2.79
                             5 2.86   6 2.86   7 2.92   8 2.92
  28  0.073  0.500  0.053-  32 2.34  33 2.34  44 2.40  47 2.46  22 2.70  23 2.70  13 2.78  14 2.79
                             7 2.86   8 2.86   1 2.92   2 2.92
  29  0.323  0.500  0.447-  34 2.34  35 2.34  45 2.40  44 2.46  16 2.70  17 2.70  14 2.78  48 2.79
                             1 2.86   2 2.86   3 2.92   4 2.92
  30  0.573  0.500  0.053-  36 2.34  37 2.34  46 2.40  45 2.46  18 2.70  19 2.70  48 2.78  15 2.79
                             3 2.86   4 2.86   5 2.92   6 2.92
  31  0.823  0.500  0.447-  38 2.34  39 2.34  47 2.40  46 2.46  20 2.70  21 2.70  15 2.78  13 2.79
                             5 2.86   6 2.86   7 2.92   8 2.92
  32  0.125  0.250  0.878-  24 2.34  28 2.34  16 2.40  22 2.46  10 2.51  14 2.51   1 2.56  13 2.75
                             9 2.75
  33  0.125  0.750  0.878-  24 2.34  28 2.34  17 2.40  23 2.46  10 2.51  14 2.51   2 2.56  13 2.75
                             9 2.75
  34  0.375  0.250  0.622-  25 2.34  29 2.34  18 2.40  16 2.46  11 2.51  48 2.51   3 2.56  14 2.75
                            10 2.75
  35  0.375  0.750  0.622-  25 2.34  29 2.34  19 2.40  17 2.46  11 2.51  48 2.51   4 2.56  14 2.75
                            10 2.75
  36  0.625  0.250  0.878-  26 2.34  30 2.34  20 2.40  18 2.46  12 2.51  15 2.51   5 2.56  11 2.75
                            48 2.75
  37  0.625  0.750  0.878-  26 2.34  30 2.34  21 2.40  19 2.46  12 2.51  15 2.51   6 2.56  11 2.75
                            48 2.75
  38  0.875  0.250  0.622-  27 2.34  31 2.34  22 2.40  20 2.46   9 2.51  13 2.51   7 2.56  12 2.75
                            15 2.75
  39  0.875  0.750  0.622-  27 2.34  31 2.34  23 2.40  21 2.46   9 2.51  13 2.51   8 2.56  12 2.75
                            15 2.75
  40  0.125  0.000  0.378-  16 2.34  17 2.34  24 2.40  25 2.46   7 2.51   8 2.51   9 2.56   2 2.75
                             1 2.75
  41  0.375  0.000  0.122-  18 2.34  19 2.34  25 2.40  26 2.46   1 2.51   2 2.51  10 2.56   4 2.75
                             3 2.75
  42  0.625  0.000  0.378-  20 2.34  21 2.34  26 2.40  27 2.46   3 2.51   4 2.51  11 2.56   6 2.75
                             5 2.75
  43  0.875  0.000  0.122-  22 2.34  23 2.34  27 2.40  24 2.46   5 2.51   6 2.51  12 2.56   8 2.75
                             7 2.75
  44  0.125  0.500  0.378-  16 2.34  17 2.34  28 2.40  29 2.46   7 2.51   8 2.51  13 2.56   2 2.75
                             1 2.75
  45  0.375  0.500  0.122-  18 2.34  19 2.34  29 2.40  30 2.46   1 2.51   2 2.51  14 2.56   4 2.75
                             3 2.75
  46  0.625  0.500  0.378-  20 2.34  21 2.34  30 2.40  31 2.46   3 2.51   4 2.51  48 2.56   6 2.75
                             5 2.75
  47  0.875  0.500  0.122-  22 2.34  23 2.34  31 2.40  28 2.46   5 2.51   6 2.51  15 2.56   8 2.75
                             7 2.75
  48  0.508  0.500  0.678-  34 2.51  35 2.51  46 2.56  37 2.75  36 2.75  30 2.78  29 2.79  19 2.86
                            18 2.86  21 2.92  20 2.92
 
  LATTYP: Found a simple orthorhombic cell.
 ALAT       =     7.1150882767
 B/A-ratio  =     1.0555008508
 C/A-ratio  =     1.7085169161
  
  Lattice vectors:
  
 A1 = (   0.0000000000,   0.0000000000,  -7.1150882767)
 A2 = (   0.0000000000,  -7.5099817296,   0.0000000000)
 A3 = ( -12.1562486800,   0.0000000000,   0.0000000000)


Analysis of symmetry for initial positions (statically):
=====================================================================
 Subroutine PRICEL returns:
 Original cell was already a primitive cell.
 

 Routine SETGRP: Setting up the symmetry group for a 
 simple orthorhombic supercell.


 Subroutine GETGRP returns: Found  2 space group operations
 (whereof  2 operations were pure point group operations)
 out of a pool of  8 trial point group operations.


The static configuration has the point symmetry C_1h.


Analysis of symmetry for dynamics (positions and initial velocities):
=====================================================================
 Subroutine PRICEL returns:
 Original cell was already a primitive cell.
 

 Routine SETGRP: Setting up the symmetry group for a 
 simple orthorhombic supercell.


 Subroutine GETGRP returns: Found  2 space group operations
 (whereof  2 operations were pure point group operations)
 out of a pool of  8 trial point group operations.


The dynamic configuration has the point symmetry C_1h.


Analysis of structural, dynamic, and magnetic symmetry:
=====================================================================
 Subroutine PRICEL returns:
 Original cell was already a primitive cell.
 

 Routine SETGRP: Setting up the symmetry group for a 
 simple orthorhombic supercell.


 Subroutine GETGRP returns: Found  2 space group operations
 (whereof  2 operations were pure point group operations)
 out of a pool of  8 trial point group operations.


The magnetic configuration has the point symmetry C_1h.


 Subroutine INISYM returns: Found  2 space group operations
 (whereof  2 operations are pure point group operations),
 and found     1 'primitive' translations


----------------------------------------------------------------------------------------

                                     Primitive cell                                     

  volume of cell :     649.5592

  direct lattice vectors                    reciprocal lattice vectors
    12.156248680  0.000000000  0.000000000     0.082262220  0.000000000  0.000000000
     0.000000000  7.509981730  0.000000000     0.000000000  0.133156116  0.000000000
     0.000000000  0.000000000  7.115088277     0.000000000  0.000000000  0.140546394

  length of vectors
    12.156248680  7.509981730  7.115088277     0.082262220  0.133156116  0.140546394

  position of ions in fractional coordinates (direct lattice)
     0.241899997  0.250000000  0.178299993
     0.241899997  0.750000000  0.178299993
     0.491899997  0.250000000  0.321700007
     0.491899997  0.750000000  0.321700007
     0.741900027  0.250000000  0.178299993
     0.741900027  0.750000000  0.178299993
     0.991900027  0.250000000  0.321700007
     0.991900027  0.750000000  0.321700007
     0.008100000  0.000000000  0.678300023
     0.258100003  0.000000000  0.821699977
     0.508099973  0.000000000  0.678300023
     0.758099973  0.000000000  0.821699977
     0.008100000  0.500000000  0.678300023
     0.258100003  0.500000000  0.821699977
     0.758099973  0.500000000  0.821699977
     0.176699996  0.250000000  0.553300023
     0.176699996  0.750000000  0.553300023
     0.426699996  0.250000000  0.946699977
     0.426699996  0.750000000  0.946699977
     0.676699996  0.250000000  0.553300023
     0.676699996  0.750000000  0.553300023
     0.926699996  0.250000000  0.946699977
     0.926699996  0.750000000  0.946699977
     0.073299997  0.000000000  0.053300001
     0.323300004  0.000000000  0.446700007
     0.573300004  0.000000000  0.053300001
     0.823300004  0.000000000  0.446700007
     0.073299997  0.500000000  0.053300001
     0.323300004  0.500000000  0.446700007
     0.573300004  0.500000000  0.053300001
     0.823300004  0.500000000  0.446700007
     0.125249997  0.250000000  0.878300011
     0.125249997  0.750000000  0.878300011
     0.375250012  0.250000000  0.621699989
     0.375250012  0.750000000  0.621699989
     0.625249982  0.250000000  0.878300011
     0.625249982  0.750000000  0.878300011
     0.875249982  0.250000000  0.621699989
     0.875249982  0.750000000  0.621699989
     0.124750003  0.000000000  0.378300011
     0.374749988  0.000000000  0.121699996
     0.624750018  0.000000000  0.378300011
     0.874750018  0.000000000  0.121699996
     0.124750003  0.500000000  0.378300011
     0.374749988  0.500000000  0.121699996
     0.624750018  0.500000000  0.378300011
     0.874750018  0.500000000  0.121699996
     0.508099973  0.500000000  0.678300023

  ion indices of the primitive-cell ions
   primitive index   ion index
                 1           1
                 2           2
                 3           3
                 4           4
                 5           5
                 6           6
                 7           7
                 8           8
                 9           9
                10          10
                11          11
                12          12
                13          13
                14          14
                15          15
                16          16
                17          17
                18          18
                19          19
                20          20
                21          21
                22          22
                23          23
                24          24
                25          25
                26          26
                27          27
                28          28
                29          29
                30          30
                31          31
                32          32
                33          33
                34          34
                35          35
                36          36
                37          37
                38          38
                39          39
                40          40
                41          41
                42          42
                43          43
                44          44
                45          45
                46          46
                47          47
                48          48

----------------------------------------------------------------------------------------

 
 
 KPOINTS: Auto                                    

Automatic generation of k-mesh.
Space group operators:
 irot       det(A)        alpha          n_x          n_y          n_z        tau_x        tau_y        tau_z
    1     1.000000     0.000000     1.000000     0.000000     0.000000     0.000000     0.000000     0.000000
    2    -1.000000   180.000000     0.000000     1.000000     0.000000     0.000000     0.000000     0.000000
 
 Subroutine IBZKPT returns following result:
 ===========================================
 
 Found     60 irreducible k-points:
 
 Following reciprocal coordinates:
            Coordinates               Weight
  0.000000  0.000000  0.000000      1.000000
  0.250000  0.000000  0.000000      2.000000
  0.500000  0.000000  0.000000      1.000000
  0.000000  0.142857  0.000000      2.000000
  0.250000  0.142857  0.000000      4.000000
  0.500000  0.142857  0.000000      2.000000
  0.000000  0.285714  0.000000      2.000000
  0.250000  0.285714  0.000000      4.000000
  0.500000  0.285714  0.000000      2.000000
  0.000000  0.428571  0.000000      2.000000
  0.250000  0.428571  0.000000      4.000000
  0.500000  0.428571  0.000000      2.000000
  0.000000  0.000000  0.142857      2.000000
  0.250000  0.000000  0.142857      2.000000
 -0.250000  0.000000  0.142857      2.000000
  0.500000  0.000000  0.142857      2.000000
  0.000000  0.142857  0.142857      4.000000
  0.250000  0.142857  0.142857      4.000000
 -0.250000 -0.142857  0.142857      4.000000
  0.500000  0.142857  0.142857      4.000000
  0.000000  0.285714  0.142857      4.000000
  0.250000  0.285714  0.142857      4.000000
 -0.250000 -0.285714  0.142857      4.000000
  0.500000  0.285714  0.142857      4.000000
  0.000000  0.428571  0.142857      4.000000
  0.250000  0.428571  0.142857      4.000000
 -0.250000 -0.428571  0.142857      4.000000
  0.500000  0.428571  0.142857      4.000000
  0.000000  0.000000  0.285714      2.000000
  0.250000  0.000000  0.285714      2.000000
 -0.250000  0.000000  0.285714      2.000000
  0.500000  0.000000  0.285714      2.000000
  0.000000  0.142857  0.285714      4.000000
  0.250000  0.142857  0.285714      4.000000
 -0.250000 -0.142857  0.285714      4.000000
  0.500000  0.142857  0.285714      4.000000
  0.000000  0.285714  0.285714      4.000000
  0.250000  0.285714  0.285714      4.000000
 -0.250000 -0.285714  0.285714      4.000000
  0.500000  0.285714  0.285714      4.000000
  0.000000  0.428571  0.285714      4.000000
  0.250000  0.428571  0.285714      4.000000
 -0.250000 -0.428571  0.285714      4.000000
  0.500000  0.428571  0.285714      4.000000
  0.000000  0.000000  0.428571      2.000000
  0.250000  0.000000  0.428571      2.000000
 -0.250000  0.000000  0.428571      2.000000
  0.500000  0.000000  0.428571      2.000000
  0.000000  0.142857  0.428571      4.000000
  0.250000  0.142857  0.428571      4.000000
 -0.250000 -0.142857  0.428571      4.000000
  0.500000  0.142857  0.428571      4.000000
  0.000000  0.285714  0.428571      4.000000
  0.250000  0.285714  0.428571      4.000000
 -0.250000 -0.285714  0.428571      4.000000
  0.500000  0.285714  0.428571      4.000000
  0.000000  0.428571  0.428571      4.000000
  0.250000  0.428571  0.428571      4.000000
 -0.250000 -0.428571  0.428571      4.000000
  0.500000  0.428571  0.428571      4.000000
 
 Following cartesian coordinates:
            Coordinates               Weight
  0.000000  0.000000  0.000000      1.000000
  0.020771  0.000000  0.000000      2.000000
  0.041542  0.000000  0.000000      1.000000
  0.000000  0.019213  0.000000      2.000000
  0.020771  0.019213  0.000000      4.000000
  0.041542  0.019213  0.000000      2.000000
  0.000000  0.038425  0.000000      2.000000
  0.020771  0.038425  0.000000      4.000000
  0.041542  0.038425  0.000000      2.000000
  0.000000  0.057638  0.000000      2.000000
  0.020771  0.057638  0.000000      4.000000
  0.041542  0.057638  0.000000      2.000000
  0.000000  0.000000  0.020279      2.000000
  0.020771  0.000000  0.020279      2.000000
 -0.020771  0.000000  0.020279      2.000000
  0.041542  0.000000  0.020279      2.000000
  0.000000  0.019213  0.020279      4.000000
  0.020771  0.019213  0.020279      4.000000
 -0.020771 -0.019213  0.020279      4.000000
  0.041542  0.019213  0.020279      4.000000
  0.000000  0.038425  0.020279      4.000000
  0.020771  0.038425  0.020279      4.000000
 -0.020771 -0.038425  0.020279      4.000000
  0.041542  0.038425  0.020279      4.000000
  0.000000  0.057638  0.020279      4.000000
  0.020771  0.057638  0.020279      4.000000
 -0.020771 -0.057638  0.020279      4.000000
  0.041542  0.057638  0.020279      4.000000
  0.000000  0.000000  0.040558      2.000000
  0.020771  0.000000  0.040558      2.000000
 -0.020771  0.000000  0.040558      2.000000
  0.041542  0.000000  0.040558      2.000000
  0.000000  0.019213  0.040558      4.000000
  0.020771  0.019213  0.040558      4.000000
 -0.020771 -0.019213  0.040558      4.000000
  0.041542  0.019213  0.040558      4.000000
  0.000000  0.038425  0.040558      4.000000
  0.020771  0.038425  0.040558      4.000000
 -0.020771 -0.038425  0.040558      4.000000
  0.041542  0.038425  0.040558      4.000000
  0.000000  0.057638  0.040558      4.000000
  0.020771  0.057638  0.040558      4.000000
 -0.020771 -0.057638  0.040558      4.000000
  0.041542  0.057638  0.040558      4.000000
  0.000000  0.000000  0.060837      2.000000
  0.020771  0.000000  0.060837      2.000000
 -0.020771  0.000000  0.060837      2.000000
  0.041542  0.000000  0.060837      2.000000
  0.000000  0.019213  0.060837      4.000000
  0.020771  0.019213  0.060837      4.000000
 -0.020771 -0.019213  0.060837      4.000000
  0.041542  0.019213  0.060837      4.000000
  0.000000  0.038425  0.060837      4.000000
  0.020771  0.038425  0.060837      4.000000
 -0.020771 -0.038425  0.060837      4.000000
  0.041542  0.038425  0.060837      4.000000
  0.000000  0.057638  0.060837      4.000000
  0.020771  0.057638  0.060837      4.000000
 -0.020771 -0.057638  0.060837      4.000000
  0.041542  0.057638  0.060837      4.000000
 


--------------------------------------------------------------------------------------------------------




 Dimension of arrays:
   k-points           NKPTS =     60   k-points in BZ     NKDIM =     60   number of bands    NBANDS=    360
   number of dos      NEDOS =    301   number of ions     NIONS =     48
   non local maximal  LDIM  =      6   non local SUM 2l+1 LMDIM =     18
   total plane-waves  NPLWV = 226800
   max r-space proj   IRMAX =      1   max aug-charges    IRDMAX=  19174
   dimension x,y,z NGX =    84 NGY =   54 NGZ =   50
   dimension x,y,z NGXF=   168 NGYF=  108 NGZF=  100
   support grid    NGXF=   168 NGYF=  108 NGZF=  100
   ions per type =              15  16  16   1
   NGX,Y,Z   is equivalent  to a cutoff of  11.49, 11.95, 11.68 a.u.
   NGXF,Y,Z  is equivalent  to a cutoff of  22.98, 23.91, 23.37 a.u.

 SYSTEM =  MnFeNiGe_mag_orth-scf                   
 POSCAR =  MnNiGe_orth                             

 Startparameter for this run:
   NWRITE =      2    write-flag & timer
   PREC   = accura    normal or accurate (medium, high low for compatibility)
   ISTART =      0    job   : 0-new  1-cont  2-samecut
   ICHARG =      2    charge: 1-file 2-atom 10-const
   ISPIN  =      2    spin polarized calculation?
   LNONCOLLINEAR =      F non collinear calculations
   LSORBIT =      F    spin-orbit coupling
   INIWAV =      1    electr: 0-lowe 1-rand  2-diag
   LASPH  =      F    aspherical Exc in radial PAW
   METAGGA=      F    non-selfconsistent MetaGGA calc.

 Electronic Relaxation 1
   ENCUT  =  450.0 eV  33.07 Ry    5.75 a.u.  21.03 12.99 12.31*2*pi/ulx,y,z
   ENINI  =  450.0     initial cutoff
   ENAUG  =  544.6 eV  augmentation charge cutoff
   NELM   =     60;   NELMIN=  5; NELMDL= -5     # of ELM steps 
   EDIFF  = 0.1E-05   stopping-criterion for ELM
   LREAL  =      F    real-space projection
   NLSPLINE    = F    spline interpolate recip. space projectors
   LCOMPAT=      F    compatible to vasp.4.4
   GGA_COMPAT  = T    GGA compatible to vasp.4.4-vasp.4.6
   LMAXPAW     = -100 max onsite density
   LMAXMIX     =    2 max onsite mixed and CHGCAR
   VOSKOWN=      0    Vosko Wilk Nusair interpolation
   ROPT   =    0.00000   0.00000   0.00000   0.00000
 Ionic relaxation
   EDIFFG = 0.1E-04   stopping-criterion for IOM
   NSW    =      0    number of steps for IOM
   NBLOCK =      1;   KBLOCK =      1    inner block; outer block 
   IBRION =     -1    ionic relax: 0-MD 1-quasi-New 2-CG
   NFREE  =      0    steps in history (QN), initial steepest desc. (CG)
   ISIF   =      6    stress and relaxation
   IWAVPR =     10    prediction:  0-non 1-charg 2-wave 3-comb
   ISYM   =      2    0-nonsym 1-usesym 2-fastsym
   LCORR  =      T    Harris-Foulkes like correction to forces

   POTIM  = 0.5000    time-step for ionic-motion
   TEIN   =    0.0    initial temperature
   TEBEG  =    0.0;   TEEND  =   0.0 temperature during run
   SMASS  =  -3.00    Nose mass-parameter (am)
   estimated Nose-frequenzy (Omega)   =  0.10E-29 period in steps = 0.13E+47 mass=  -0.338E-26a.u.
   SCALEE = 1.0000    scale energy and forces
   NPACO  =    256;   APACO  = 16.0  distance and # of slots for P.C.
   PSTRESS=    0.0 pullay stress

  Mass of Ions in am
   POMASS =  54.94 58.69 72.61 55.85
  Ionic Valenz
   ZVAL   =   7.00 10.00  4.00  8.00
  Atomic Wigner-Seitz radii
   RWIGS  =  -1.00 -1.00 -1.00 -1.00
  virtual crystal weights 
   VCA    =   1.00  1.00  1.00  1.00
   NELECT =     337.0000    total number of electrons
   NUPDOWN=      -1.0000    fix difference up-down

 DOS related values:
   EMIN   =  10.00;   EMAX   =-10.00  energy-range for DOS
   EFERMI =   0.00
   ISMEAR =     1;   SIGMA  =   0.20  broadening in eV -4-tet -1-fermi 0-gaus

 Electronic relaxation 2 (details)
   IALGO  =     38    algorithm
   LDIAG  =      T    sub-space diagonalisation (order eigenvalues)
   LSUBROT=      F    optimize rotation matrix (better conditioning)
   TURBO    =      0    0=normal 1=particle mesh
   IRESTART =      0    0=no restart 2=restart with 2 vectors
   NREBOOT  =      0    no. of reboots
   NMIN     =      0    reboot dimension
   EREF     =   0.00    reference energy to select bands
   IMIX   =      4    mixing-type and parameters
     AMIX     =   0.40;   BMIX     =  1.00
     AMIX_MAG =   1.60;   BMIX_MAG =  1.00
     AMIN     =   0.10
     WC   =   100.;   INIMIX=   1;  MIXPRE=   1;  MAXMIX= -45

 Intra band minimization:
   WEIMIN = 0.0000     energy-eigenvalue tresh-hold
   EBREAK =  0.69E-09  absolut break condition
   DEPER  =   0.30     relativ break condition  

   TIME   =   0.40     timestep for ELM

  volume/ion in A,a.u.               =      13.53        91.32
  Fermi-wavevector in a.u.,A,eV,Ry     =   1.315463  2.485864 23.544095  1.730442
  Thomas-Fermi vector in A             =   2.445644
 
 Write flags
   LWAVE        =      F    write WAVECAR
   LDOWNSAMPLE  =      F    k-point downsampling of WAVECAR
   LCHARG       =      T    write CHGCAR
   LVTOT        =      F    write LOCPOT, total local potential
   LVHAR        =      F    write LOCPOT, Hartree potential only
   LELF         =      F    write electronic localiz. function (ELF)
   LORBIT       =     11    0 simple, 1 ext, 2 COOP (PROOUT), +10 PAW based schemes


 Dipole corrections
   LMONO  =      F    monopole corrections only (constant potential shift)
   LDIPOL =      F    correct potential (dipole corrections)
   IDIPOL =      0    1-x, 2-y, 3-z, 4-all directions 
   EPSILON=  1.0000000 bulk dielectric constant

 Exchange correlation treatment:
   GGA     =    --    GGA type
   LEXCH   =     8    internal setting for exchange type
   VOSKOWN=      0    Vosko Wilk Nusair interpolation
   LHFCALC =     F    Hartree Fock is set to
   LHFONE  =     F    Hartree Fock one center treatment
   AEXX    =    0.0000 exact exchange contribution

 Linear response parameters
   LEPSILON=     F    determine dielectric tensor
   LRPA    =     F    only Hartree local field effects (RPA)
   LNABLA  =     F    use nabla operator in PAW spheres
   LVEL    =     F    velocity operator in full k-point grid
   LINTERFAST=   F  fast interpolation
   KINTER  =     0    interpolate to denser k-point grid
   CSHIFT  =0.1000    complex shift for real part using Kramers Kronig
   OMEGAMAX=  -1.0    maximum frequency
   DEG_THRESHOLD= 0.2000000E-02 threshold for treating states as degnerate
   RTIME   =   -0.100 relaxation time in fs
  (WPLASMAI=    0.000 imaginary part of plasma frequency in eV, 0.658/RTIME)
   DFIELD  = 0.0000000 0.0000000 0.0000000 field for delta impulse in time
 
 Orbital magnetization related:
   ORBITALMAG=     F  switch on orbital magnetization
   LCHIMAG   =     F  perturbation theory with respect to B field
   DQ        =  0.001000  dq finite difference perturbation B field
   LLRAUG    =     F  two centre corrections for induced B field



--------------------------------------------------------------------------------------------------------


 Static calculation
 charge density and potential will be updated during run
 spin polarized calculation
 Variant of blocked Davidson
 Davidson routine will perform the subspace rotation
 perform sub-space diagonalisation
    after iterative eigenvector-optimisation
 modified Broyden-mixing scheme, WC =      100.0
 initial mixing is a Kerker type mixing with AMIX =  0.4000 and BMIX =      1.0000
 Hartree-type preconditioning will be used
 using additional bands          191
 reciprocal scheme for non local part
 use partial core corrections
 calculate Harris-corrections to forces 
   (improved forces if not selfconsistent)
 use gradient corrections 
 use of overlap-Matrix (Vanderbilt PP)
 Methfessel and Paxton  Order N= 1 SIGMA  =   0.20


--------------------------------------------------------------------------------------------------------


  energy-cutoff  :      450.00
  volume of cell :      649.56
      direct lattice vectors                 reciprocal lattice vectors
    12.156248680  0.000000000  0.000000000     0.082262220  0.000000000  0.000000000
     0.000000000  7.509981730  0.000000000     0.000000000  0.133156116  0.000000000
     0.000000000  0.000000000  7.115088277     0.000000000  0.000000000  0.140546394

  length of vectors
    12.156248680  7.509981730  7.115088277     0.082262220  0.133156116  0.140546394


 
 k-points in units of 2pi/SCALE and weight: Auto                                    
   0.00000000  0.00000000  0.00000000       0.005
   0.02077121  0.00000000  0.00000000       0.010
   0.04154242  0.00000000  0.00000000       0.005
   0.00000000  0.01921253  0.00000000       0.010
   0.02077121  0.01921253  0.00000000       0.020
   0.04154242  0.01921253  0.00000000       0.010
   0.00000000  0.03842505  0.00000000       0.010
   0.02077121  0.03842505  0.00000000       0.020
   0.04154242  0.03842505  0.00000000       0.010
   0.00000000  0.05763758  0.00000000       0.010
   0.02077121  0.05763758  0.00000000       0.020
   0.04154242  0.05763758  0.00000000       0.010
   0.00000000  0.00000000  0.02027884       0.010
   0.02077121  0.00000000  0.02027884       0.010
  -0.02077121  0.00000000  0.02027884       0.010
   0.04154242  0.00000000  0.02027884       0.010
   0.00000000  0.01921253  0.02027884       0.020
   0.02077121  0.01921253  0.02027884       0.020
  -0.02077121 -0.01921253  0.02027884       0.020
   0.04154242  0.01921253  0.02027884       0.020
   0.00000000  0.03842505  0.02027884       0.020
   0.02077121  0.03842505  0.02027884       0.020
  -0.02077121 -0.03842505  0.02027884       0.020
   0.04154242  0.03842505  0.02027884       0.020
   0.00000000  0.05763758  0.02027884       0.020
   0.02077121  0.05763758  0.02027884       0.020
  -0.02077121 -0.05763758  0.02027884       0.020
   0.04154242  0.05763758  0.02027884       0.020
   0.00000000  0.00000000  0.04055767       0.010
   0.02077121  0.00000000  0.04055767       0.010
  -0.02077121  0.00000000  0.04055767       0.010
   0.04154242  0.00000000  0.04055767       0.010
   0.00000000  0.01921253  0.04055767       0.020
   0.02077121  0.01921253  0.04055767       0.020
  -0.02077121 -0.01921253  0.04055767       0.020
   0.04154242  0.01921253  0.04055767       0.020
   0.00000000  0.03842505  0.04055767       0.020
   0.02077121  0.03842505  0.04055767       0.020
  -0.02077121 -0.03842505  0.04055767       0.020
   0.04154242  0.03842505  0.04055767       0.020
   0.00000000  0.05763758  0.04055767       0.020
   0.02077121  0.05763758  0.04055767       0.020
  -0.02077121 -0.05763758  0.04055767       0.020
   0.04154242  0.05763758  0.04055767       0.020
   0.00000000  0.00000000  0.06083651       0.010
   0.02077121  0.00000000  0.06083651       0.010
  -0.02077121  0.00000000  0.06083651       0.010
   0.04154242  0.00000000  0.06083651       0.010
   0.00000000  0.01921253  0.06083651       0.020
   0.02077121  0.01921253  0.06083651       0.020
  -0.02077121 -0.01921253  0.06083651       0.020
   0.04154242  0.01921253  0.06083651       0.020
   0.00000000  0.03842505  0.06083651       0.020
   0.02077121  0.03842505  0.06083651       0.020
  -0.02077121 -0.03842505  0.06083651       0.020
   0.04154242  0.03842505  0.06083651       0.020
   0.00000000  0.05763758  0.06083651       0.020
   0.02077121  0.05763758  0.06083651       0.020
  -0.02077121 -0.05763758  0.06083651       0.020
   0.04154242  0.05763758  0.06083651       0.020
 
 k-points in reciprocal lattice and weights: Auto                                    
   0.00000000  0.00000000  0.00000000       0.005
   0.25000000  0.00000000  0.00000000       0.010
   0.50000000  0.00000000  0.00000000       0.005
   0.00000000  0.14285714  0.00000000       0.010
   0.25000000  0.14285714  0.00000000       0.020
   0.50000000  0.14285714  0.00000000       0.010
   0.00000000  0.28571429  0.00000000       0.010
   0.25000000  0.28571429  0.00000000       0.020
   0.50000000  0.28571429  0.00000000       0.010
   0.00000000  0.42857143  0.00000000       0.010
   0.25000000  0.42857143  0.00000000       0.020
   0.50000000  0.42857143  0.00000000       0.010
   0.00000000  0.00000000  0.14285714       0.010
   0.25000000  0.00000000  0.14285714       0.010
  -0.25000000  0.00000000  0.14285714       0.010
   0.50000000  0.00000000  0.14285714       0.010
   0.00000000  0.14285714  0.14285714       0.020
   0.25000000  0.14285714  0.14285714       0.020
  -0.25000000 -0.14285714  0.14285714       0.020
   0.50000000  0.14285714  0.14285714       0.020
   0.00000000  0.28571429  0.14285714       0.020
   0.25000000  0.28571429  0.14285714       0.020
  -0.25000000 -0.28571429  0.14285714       0.020
   0.50000000  0.28571429  0.14285714       0.020
   0.00000000  0.42857143  0.14285714       0.020
   0.25000000  0.42857143  0.14285714       0.020
  -0.25000000 -0.42857143  0.14285714       0.020
   0.50000000  0.42857143  0.14285714       0.020
   0.00000000  0.00000000  0.28571429       0.010
   0.25000000  0.00000000  0.28571429       0.010
  -0.25000000  0.00000000  0.28571429       0.010
   0.50000000  0.00000000  0.28571429       0.010
   0.00000000  0.14285714  0.28571429       0.020
   0.25000000  0.14285714  0.28571429       0.020
  -0.25000000 -0.14285714  0.28571429       0.020
   0.50000000  0.14285714  0.28571429       0.020
   0.00000000  0.28571429  0.28571429       0.020
   0.25000000  0.28571429  0.28571429       0.020
  -0.25000000 -0.28571429  0.28571429       0.020
   0.50000000  0.28571429  0.28571429       0.020
   0.00000000  0.42857143  0.28571429       0.020
   0.25000000  0.42857143  0.28571429       0.020
  -0.25000000 -0.42857143  0.28571429       0.020
   0.50000000  0.42857143  0.28571429       0.020
   0.00000000  0.00000000  0.42857143       0.010
   0.25000000  0.00000000  0.42857143       0.010
  -0.25000000  0.00000000  0.42857143       0.010
   0.50000000  0.00000000  0.42857143       0.010
   0.00000000  0.14285714  0.42857143       0.020
   0.25000000  0.14285714  0.42857143       0.020
  -0.25000000 -0.14285714  0.42857143       0.020
   0.50000000  0.14285714  0.42857143       0.020
   0.00000000  0.28571429  0.42857143       0.020
   0.25000000  0.28571429  0.42857143       0.020
  -0.25000000 -0.28571429  0.42857143       0.020
   0.50000000  0.28571429  0.42857143       0.020
   0.00000000  0.42857143  0.42857143       0.020
   0.25000000  0.42857143  0.42857143       0.020
  -0.25000000 -0.42857143  0.42857143       0.020
   0.50000000  0.42857143  0.42857143       0.020
 
 position of ions in fractional coordinates (direct lattice) 
   0.24190000  0.25000000  0.17829999
   0.24190000  0.75000000  0.17829999
   0.49190000  0.25000000  0.32170001
   0.49190000  0.75000000  0.32170001
   0.74190003  0.25000000  0.17829999
   0.74190003  0.75000000  0.17829999
   0.99190003  0.25000000  0.32170001
   0.99190003  0.75000000  0.32170001
   0.00810000  0.00000000  0.67830002
   0.25810000  0.00000000  0.82169998
   0.50809997  0.00000000  0.67830002
   0.75809997  0.00000000  0.82169998
   0.00810000  0.50000000  0.67830002
   0.25810000  0.50000000  0.82169998
   0.75809997  0.50000000  0.82169998
   0.17670000  0.25000000  0.55330002
   0.17670000  0.75000000  0.55330002
   0.42670000  0.25000000  0.94669998
   0.42670000  0.75000000  0.94669998
   0.67670000  0.25000000  0.55330002
   0.67670000  0.75000000  0.55330002
   0.92670000  0.25000000  0.94669998
   0.92670000  0.75000000  0.94669998
   0.07330000  0.00000000  0.05330000
   0.32330000  0.00000000  0.44670001
   0.57330000  0.00000000  0.05330000
   0.82330000  0.00000000  0.44670001
   0.07330000  0.50000000  0.05330000
   0.32330000  0.50000000  0.44670001
   0.57330000  0.50000000  0.05330000
   0.82330000  0.50000000  0.44670001
   0.12525000  0.25000000  0.87830001
   0.12525000  0.75000000  0.87830001
   0.37525001  0.25000000  0.62169999
   0.37525001  0.75000000  0.62169999
   0.62524998  0.25000000  0.87830001
   0.62524998  0.75000000  0.87830001
   0.87524998  0.25000000  0.62169999
   0.87524998  0.75000000  0.62169999
   0.12475000  0.00000000  0.37830001
   0.37474999  0.00000000  0.12170000
   0.62475002  0.00000000  0.37830001
   0.87475002  0.00000000  0.12170000
   0.12475000  0.50000000  0.37830001
   0.37474999  0.50000000  0.12170000
   0.62475002  0.50000000  0.37830001
   0.87475002  0.50000000  0.12170000
   0.50809997  0.50000000  0.67830002
 
 position of ions in cartesian coordinates  (Angst):
   2.94059652  1.87749543  1.26862019
   2.94059652  5.63248630  1.26862019
   5.97965869  1.87749543  2.28892395
   5.97965869  5.63248630  2.28892395
   9.01872122  1.87749543  1.26862019
   9.01872122  5.63248630  1.26862019
  12.05778339  1.87749543  2.28892395
  12.05778339  5.63248630  2.28892395
   0.09846561  0.00000000  4.82616454
   3.13752782  0.00000000  5.84646787
   6.17658963  0.00000000  4.82616454
   9.21565180  0.00000000  5.84646787
   0.09846561  3.75499086  4.82616454
   3.13752782  3.75499086  5.84646787
   9.21565180  3.75499086  5.84646787
   2.14800909  1.87749543  3.93677851
   2.14800909  5.63248630  3.93677851
   5.18707126  1.87749543  6.73585391
   5.18707126  5.63248630  6.73585391
   8.22613343  1.87749543  3.93677851
   8.22613343  5.63248630  3.93677851
  11.26519560  1.87749543  6.73585391
  11.26519560  5.63248630  6.73585391
   0.89105299  0.00000000  0.37923421
   3.93011525  0.00000000  3.17830998
   6.96917742  0.00000000  0.37923421
  10.00823959  0.00000000  3.17830998
   0.89105299  3.75499086  0.37923421
   3.93011525  3.75499086  3.17830998
   6.96917742  3.75499086  0.37923421
  10.00823959  3.75499086  3.17830998
   1.52257011  1.87749543  6.24918211
   1.52257011  5.63248630  6.24918211
   4.56163246  1.87749543  4.42345030
   4.56163246  5.63248630  4.42345030
   7.60069427  1.87749543  6.24918211
   7.60069427  5.63248630  6.24918211
  10.63975644  1.87749543  4.42345030
  10.63975644  5.63248630  4.42345030
   1.51649206  0.00000000  2.69163797
   4.55555405  0.00000000  0.86590621
   7.59461658  0.00000000  2.69163797
  10.63367875  0.00000000  0.86590621
   1.51649206  3.75499086  2.69163797
   4.55555405  3.75499086  0.86590621
   7.59461658  3.75499086  2.69163797
  10.63367875  3.75499086  0.86590621
   6.17658963  3.75499086  4.82616454
 


--------------------------------------------------------------------------------------------------------


 k-point   1 :   0.0000 0.0000 0.0000  plane waves:   14071
 k-point   2 :   0.2500 0.0000 0.0000  plane waves:   14062
 k-point   3 :   0.5000 0.0000 0.0000  plane waves:   14010
 k-point   4 :   0.0000 0.1429 0.0000  plane waves:   14082
 k-point   5 :   0.2500 0.1429 0.0000  plane waves:   14072
 k-point   6 :   0.5000 0.1429 0.0000  plane waves:   14054
 k-point   7 :   0.0000 0.2857 0.0000  plane waves:   14082
 k-point   8 :   0.2500 0.2857 0.0000  plane waves:   14098
 k-point   9 :   0.5000 0.2857 0.0000  plane waves:   14124
 k-point  10 :   0.0000 0.4286 0.0000  plane waves:   14108
 k-point  11 :   0.2500 0.4286 0.0000  plane waves:   14117
 k-point  12 :   0.5000 0.4286 0.0000  plane waves:   14092
 k-point  13 :   0.0000 0.0000 0.1429  plane waves:   14051
 k-point  14 :   0.2500 0.0000 0.1429  plane waves:   14060
 k-point  15 :  -0.2500 0.0000 0.1429  plane waves:   14060
 k-point  16 :   0.5000 0.0000 0.1429  plane waves:   14050
 k-point  17 :   0.0000 0.1429 0.1429  plane waves:   14065
 k-point  18 :   0.2500 0.1429 0.1429  plane waves:   14081
 k-point  19 :  -0.2500-0.1429 0.1429  plane waves:   14081
 k-point  20 :   0.5000 0.1429 0.1429  plane waves:   14060
 k-point  21 :   0.0000 0.2857 0.1429  plane waves:   14075
 k-point  22 :   0.2500 0.2857 0.1429  plane waves:   14093
 k-point  23 :  -0.2500-0.2857 0.1429  plane waves:   14093
 k-point  24 :   0.5000 0.2857 0.1429  plane waves:   14116
 k-point  25 :   0.0000 0.4286 0.1429  plane waves:   14075
 k-point  26 :   0.2500 0.4286 0.1429  plane waves:   14099
 k-point  27 :  -0.2500-0.4286 0.1429  plane waves:   14099
 k-point  28 :   0.5000 0.4286 0.1429  plane waves:   14106
 k-point  29 :   0.0000 0.0000 0.2857  plane waves:   14053
 k-point  30 :   0.2500 0.0000 0.2857  plane waves:   14049
 k-point  31 :  -0.2500 0.0000 0.2857  plane waves:   14049
 k-point  32 :   0.5000 0.0000 0.2857  plane waves:   14042
 k-point  33 :   0.0000 0.1429 0.2857  plane waves:   14071
 k-point  34 :   0.2500 0.1429 0.2857  plane waves:   14072
 k-point  35 :  -0.2500-0.1429 0.2857  plane waves:   14072
 k-point  36 :   0.5000 0.1429 0.2857  plane waves:   14066
 k-point  37 :   0.0000 0.2857 0.2857  plane waves:   14064
 k-point  38 :   0.2500 0.2857 0.2857  plane waves:   14093
 k-point  39 :  -0.2500-0.2857 0.2857  plane waves:   14093
 k-point  40 :   0.5000 0.2857 0.2857  plane waves:   14084
 k-point  41 :   0.0000 0.4286 0.2857  plane waves:   14078
 k-point  42 :   0.2500 0.4286 0.2857  plane waves:   14082
 k-point  43 :  -0.2500-0.4286 0.2857  plane waves:   14082
 k-point  44 :   0.5000 0.4286 0.2857  plane waves:   14086
 k-point  45 :   0.0000 0.0000 0.4286  plane waves:   14048
 k-point  46 :   0.2500 0.0000 0.4286  plane waves:   14060
 k-point  47 :  -0.2500 0.0000 0.4286  plane waves:   14060
 k-point  48 :   0.5000 0.0000 0.4286  plane waves:   14092
 k-point  49 :   0.0000 0.1429 0.4286  plane waves:   14059
 k-point  50 :   0.2500 0.1429 0.4286  plane waves:   14078
 k-point  51 :  -0.2500-0.1429 0.4286  plane waves:   14078
 k-point  52 :   0.5000 0.1429 0.4286  plane waves:   14102
 k-point  53 :   0.0000 0.2857 0.4286  plane waves:   14071
 k-point  54 :   0.2500 0.2857 0.4286  plane waves:   14078
 k-point  55 :  -0.2500-0.2857 0.4286  plane waves:   14078
 k-point  56 :   0.5000 0.2857 0.4286  plane waves:   14092
 k-point  57 :   0.0000 0.4286 0.4286  plane waves:   14079
 k-point  58 :   0.2500 0.4286 0.4286  plane waves:   14069
 k-point  59 :  -0.2500-0.4286 0.4286  plane waves:   14069
 k-point  60 :   0.5000 0.4286 0.4286  plane waves:   14076

 maximum and minimum number of plane-waves per node :      2387     2296

 maximum number of plane-waves:     14124
 maximum index in each direction: 
   IXMAX=   21   IYMAX=   13   IZMAX=   12
   IXMIN=  -21   IYMIN=  -13   IZMIN=  -12


 parallel 3D FFT for wavefunctions:
    minimum data exchange during FFTs selected (reduces bandwidth)
 parallel 3D FFT for charge:
    minimum data exchange during FFTs selected (reduces bandwidth)


 total amount of memory used by VASP MPI-rank0   558265. kBytes
=======================================================================

   base      :      30000. kBytes
   nonl-proj :      83232. kBytes
   fftplans  :       3728. kBytes
   grid      :      10440. kBytes
   one-center:        248. kBytes
   wavefun   :     430617. kBytes
 
     INWAV:  cpu time    0.0010: real time    0.0011
 Broyden mixing: mesh for mixing (old mesh)
   NGX = 43   NGY = 25   NGZ = 25
  (NGX  =168   NGY  =108   NGZ  =100)
  gives a total of  26875 points

 initial charge density was supplied:
 charge density of overlapping atoms calculated
 number of electron     337.0000000 magnetization     160.0000000
 keeping initial charge density in first step


--------------------------------------------------------------------------------------------------------


 Maximum index for augmentation-charges          830 (set IRDMAX)


--------------------------------------------------------------------------------------------------------


 First call to EWALD:  gamma=   0.205
 Maximum number of real-space cells 2x 3x 3
 Maximum number of reciprocal cells 4x 2x 2

    FEWALD:  cpu time    0.0030: real time    0.0177


--------------------------------------- Iteration      1(   1)  ---------------------------------------


    POTLOK:  cpu time    0.1620: real time    0.5142
    SETDIJ:  cpu time    0.0310: real time    0.1509
     EDDAV:  cpu time  294.5842: real time  297.5087
       DOS:  cpu time    0.0400: real time    0.0819
    --------------------------------------------
      LOOP:  cpu time  294.8172: real time  298.2558

 eigenvalue-minimisations  : 86400
 total energy-change (2. order) : 0.2747312E+04  (-0.1099830E+05)
 number of electron     337.0000000 magnetization     160.0000000
 augmentation part      337.0000000 magnetization     160.0000000

 Free energy of the ion-electron system (eV)
  ---------------------------------------------------
  alpha Z        PSCENC =      1478.58014808
  Ewald energy   TEWEN  =    -21779.59373111
  -Hartree energ DENC   =     -7108.06468941
  -exchange      EXHF   =         0.00000000
  -V(xc)+E(xc)   XCENC  =       310.10754662
  PAW double counting   =     23377.83946347   -23998.34197029
  entropy T*S    EENTRO =         0.00484027
  eigenvalues    EBANDS =      4698.55353448
  atomic energy  EATOM  =     25768.22672671
  Solvation  Ediel_sol  =         0.00000000
  ---------------------------------------------------
  free energy    TOTEN  =      2747.31186881 eV

  energy without entropy =     2747.30702854  energy(sigma->0) =     2747.31025539


--------------------------------------------------------------------------------------------------------




--------------------------------------- Iteration      1(   2)  ---------------------------------------


     EDDAV:  cpu time  294.6072: real time  295.8028
       DOS:  cpu time    0.0460: real time    0.0458
    --------------------------------------------
      LOOP:  cpu time  294.6532: real time  295.8487

 eigenvalue-minimisations  : 86400
 total energy-change (2. order) :-0.2593989E+04  (-0.2313474E+04)
 number of electron     337.0000000 magnetization     160.0000000
 augmentation part      337.0000000 magnetization     160.0000000

 Free energy of the ion-electron system (eV)
  ---------------------------------------------------
  alpha Z        PSCENC =      1478.58014808
  Ewald energy   TEWEN  =    -21779.59373111
  -Hartree energ DENC   =     -7108.06468941
  -exchange      EXHF   =         0.00000000
  -V(xc)+E(xc)   XCENC  =       310.10754662
  PAW double counting   =     23377.83946347   -23998.34197029
  entropy T*S    EENTRO =        -0.00132728
  eigenvalues    EBANDS =      2104.57043824
  atomic energy  EATOM  =     25768.22672671
  Solvation  Ediel_sol  =         0.00000000
  ---------------------------------------------------
  free energy    TOTEN  =       153.32260502 eV

  energy without entropy =      153.32393230  energy(sigma->0) =      153.32304745


--------------------------------------------------------------------------------------------------------




--------------------------------------- Iteration      1(   3)  ---------------------------------------


     EDDAV:  cpu time  294.8232: real time  296.2070
       DOS:  cpu time    0.0490: real time    0.0495
    --------------------------------------------
      LOOP:  cpu time  294.8722: real time  296.2566

 eigenvalue-minimisations  : 86608
 total energy-change (2. order) :-0.4256816E+03  (-0.3516192E+03)
 number of electron     337.0000000 magnetization     160.0000000
 augmentation part      337.0000000 magnetization     160.0000000

 Free energy of the ion-electron system (eV)
  ---------------------------------------------------
  alpha Z        PSCENC =      1478.58014808
  Ewald energy   TEWEN  =    -21779.59373111
  -Hartree energ DENC   =     -7108.06468941
  -exchange      EXHF   =         0.00000000
  -V(xc)+E(xc)   XCENC  =       310.10754662
  PAW double counting   =     23377.83946347   -23998.34197029
  entropy T*S    EENTRO =         0.03515025
  eigenvalues    EBANDS =      1678.85236868
  atomic energy  EATOM  =     25768.22672671
  Solvation  Ediel_sol  =         0.00000000
  ---------------------------------------------------
  free energy    TOTEN  =      -272.35898701 eV

  energy without entropy =     -272.39413725  energy(sigma->0) =     -272.37070376


--------------------------------------------------------------------------------------------------------




--------------------------------------- Iteration      1(   4)  ---------------------------------------


     EDDAV:  cpu time  346.7343: real time  348.0497
       DOS:  cpu time    0.0530: real time    0.0532
    --------------------------------------------
      LOOP:  cpu time  346.7873: real time  348.1028

 eigenvalue-minimisations  :106448
 total energy-change (2. order) :-0.2975899E+02  (-0.2857795E+02)
 number of electron     337.0000000 magnetization     160.0000000
 augmentation part      337.0000000 magnetization     160.0000000

 Free energy of the ion-electron system (eV)
  ---------------------------------------------------
  alpha Z        PSCENC =      1478.58014808
  Ewald energy   TEWEN  =    -21779.59373111
  -Hartree energ DENC   =     -7108.06468941
  -exchange      EXHF   =         0.00000000
  -V(xc)+E(xc)   XCENC  =       310.10754662
  PAW double counting   =     23377.83946347   -23998.34197029
  entropy T*S    EENTRO =         0.04168898
  eigenvalues    EBANDS =      1649.08683506
  atomic energy  EATOM  =     25768.22672671
  Solvation  Ediel_sol  =         0.00000000
  ---------------------------------------------------
  free energy    TOTEN  =      -302.11798189 eV

  energy without entropy =     -302.15967088  energy(sigma->0) =     -302.13187822


--------------------------------------------------------------------------------------------------------




--------------------------------------- Iteration      1(   5)  ---------------------------------------


     EDDAV:  cpu time  338.6735: real time  339.9642
       DOS:  cpu time    0.0550: real time    0.0543
    CHARGE:  cpu time    4.8523: real time    4.9639
    MIXING:  cpu time    0.0070: real time    0.0558
    --------------------------------------------
      LOOP:  cpu time  343.5878: real time  345.0383

 eigenvalue-minimisations  :103392
 total energy-change (2. order) :-0.7649444E+00  (-0.7633087E+00)
 number of electron     337.0000111 magnetization     133.9736105
 augmentation part      118.1473624 magnetization     110.6782500

 Broyden mixing:
  rms(total) = 0.98864E+01    rms(broyden)= 0.98862E+01
  rms(prec ) = 0.10731E+02
  weight for this iteration     100.00

 Free energy of the ion-electron system (eV)
  ---------------------------------------------------
  alpha Z        PSCENC =      1478.58014808
  Ewald energy   TEWEN  =    -21779.59373111
  -Hartree energ DENC   =     -7108.06468941
  -exchange      EXHF   =         0.00000000
  -V(xc)+E(xc)   XCENC  =       310.10754662
  PAW double counting   =     23377.83946347   -23998.34197029
  entropy T*S    EENTRO =         0.04188650
  eigenvalues    EBANDS =      1648.32169312
  atomic energy  EATOM  =     25768.22672671
  Solvation  Ediel_sol  =         0.00000000
  ---------------------------------------------------
  free energy    TOTEN  =      -302.88292632 eV

  energy without entropy =     -302.92481282  energy(sigma->0) =     -302.89688849


--------------------------------------------------------------------------------------------------------




--------------------------------------- Iteration      1(   6)  ---------------------------------------


    POTLOK:  cpu time    0.1470: real time    0.1495
    SETDIJ:  cpu time    0.0260: real time    0.0259
     EDDAV:  cpu time  354.2581: real time  355.5570
       DOS:  cpu time    0.0540: real time    0.0540
    CHARGE:  cpu time    4.5533: real time    4.5700
    MIXING:  cpu time    0.0050: real time    0.4197
    --------------------------------------------
      LOOP:  cpu time  359.0434: real time  360.7760

 eigenvalue-minimisations  :109232
 total energy-change (2. order) :-0.9161804E+02  (-0.2542955E+02)
 number of electron     337.0000184 magnetization     124.4826953
 augmentation part      160.1895273 magnetization      98.8775470

 Broyden mixing:
  rms(total) = 0.12237E+02    rms(broyden)= 0.12237E+02
  rms(prec ) = 0.13734E+02
  weight for this iteration     100.00

 eigenvalues of (default mixing * dielectric matrix)
  average eigenvalue GAMMA=   0.5164
  0.5164

 Free energy of the ion-electron system (eV)
  ---------------------------------------------------
  alpha Z        PSCENC =      1478.58014808
  Ewald energy   TEWEN  =    -21779.59373111
  -Hartree energ DENC   =     -6132.53563151
  -exchange      EXHF   =         0.00000000
  -V(xc)+E(xc)   XCENC  =       228.81540832
  PAW double counting   =     25207.17195249   -25674.17531292
  entropy T*S    EENTRO =        -0.01027265
  eigenvalues    EBANDS =       509.01974295
  atomic energy  EATOM  =     25768.22672671
  Solvation  Ediel_sol  =         0.00000000
  ---------------------------------------------------
  free energy    TOTEN  =      -394.50096963 eV

  energy without entropy =     -394.49069698  energy(sigma->0) =     -394.49754542


--------------------------------------------------------------------------------------------------------




--------------------------------------- Iteration      1(   7)  ---------------------------------------


    POTLOK:  cpu time    0.1500: real time    0.1499
    SETDIJ:  cpu time    0.0260: real time    0.0258
     EDDAV:  cpu time  346.0544: real time  347.6789
       DOS:  cpu time    0.0510: real time    0.0514
    CHARGE:  cpu time    4.4753: real time    4.4934
    MIXING:  cpu time    0.0050: real time    0.0780
    --------------------------------------------
      LOOP:  cpu time  350.7617: real time  352.4774

 eigenvalue-minimisations  :106432
 total energy-change (2. order) : 0.9096114E+02  (-0.1799745E+02)
 number of electron     337.0000135 magnetization     112.4861388
 augmentation part      153.4264791 magnetization      91.1766535

 Broyden mixing:
  rms(total) = 0.66769E+01    rms(broyden)= 0.66767E+01
  rms(prec ) = 0.84092E+01
  weight for this iteration     100.00

 eigenvalues of (default mixing * dielectric matrix)
  average eigenvalue GAMMA=   0.5840
  0.8217  0.3463

 Free energy of the ion-electron system (eV)
  ---------------------------------------------------
  alpha Z        PSCENC =      1478.58014808
  Ewald energy   TEWEN  =    -21779.59373111
  -Hartree energ DENC   =     -6504.74816911
  -exchange      EXHF   =         0.00000000
  -V(xc)+E(xc)   XCENC  =       243.68672985
  PAW double counting   =     26674.16446183   -27270.31045777
  entropy T*S    EENTRO =         0.04540362
  eigenvalues    EBANDS =      1086.40906175
  atomic energy  EATOM  =     25768.22672671
  Solvation  Ediel_sol  =         0.00000000
  ---------------------------------------------------
  free energy    TOTEN  =      -303.53982614 eV

  energy without entropy =     -303.58522976  energy(sigma->0) =     -303.55496068


--------------------------------------------------------------------------------------------------------




--------------------------------------- Iteration      1(   8)  ---------------------------------------


    POTLOK:  cpu time    0.1450: real time    0.1494
    SETDIJ:  cpu time    0.0260: real time    0.0259
     EDDAV:  cpu time  373.1423: real time  374.5470
       DOS:  cpu time    0.0520: real time    0.0518
[...]
   43       -0.016  -0.120   0.002  -0.134
   44       -0.015  -0.121   0.002  -0.134
   45       -0.016  -0.120   0.002  -0.134
   46       -0.013  -0.110   0.000  -0.123
   47       -0.016  -0.121   0.002  -0.135
   48        0.011  -0.002   2.367   2.376
--------------------------------------------------
tot         -0.234  -2.373  50.104  47.497
 
    CHARGE:  cpu time    4.5023: real time    4.5101
    FORLOC:  cpu time    0.0210: real time    0.0454
    FORNL :  cpu time  103.4483: real time  103.7857
    STRESS:  cpu time  183.2391: real time  183.9259
    FORCOR:  cpu time    0.1630: real time    0.2044
    FORHAR:  cpu time    0.0340: real time    0.0478
    MIXING:  cpu time    0.0080: real time    0.0088
    OFIELD:  cpu time    0.0010: real time    0.0040

  FORCE on cell =-STRESS in cart. coord.  units (eV):
  Direction    XX          YY          ZZ          XY          YZ          ZX
  --------------------------------------------------------------------------------------
  Alpha Z  1478.58015  1478.58015  1478.58015
  Ewald   -7491.22218 -6918.85902 -7369.61186     0.00000     0.00000     0.12511
  Hartree  2147.81919  2425.97470  2056.67758    -0.00000    -0.00000    -0.81920
  E(xc)   -1651.69883 -1653.94658 -1652.00107     0.00000     0.00000     0.08309
  Local    -451.31375 -1261.14743  -454.77008     0.00000     0.00000     1.27595
  n-local  -267.15210  -246.82252  -251.24669    -0.17576    -0.84468     0.37774
  augment  3345.69478  3327.50189  3319.50413     0.00000    -0.00000    -0.57757
  Kinetic  2872.60774  2838.81052  2852.17018    -0.20304    -0.00503    -0.62762
  Fock        0.00000     0.00000     0.00000     0.00000     0.00000     0.00000
  -------------------------------------------------------------------------------------
  Total     -16.68500    -9.90830   -20.69766     0.00000     0.00000    -0.16250
  in kB     -41.15458   -24.43943   -51.05204     0.00000     0.00000    -0.40081
  external pressure =      -38.88 kB  Pullay stress =        0.00 kB


 VOLUME and BASIS-vectors are now :
 -----------------------------------------------------------------------------
  energy-cutoff  :      450.00
  volume of cell :      649.56
      direct lattice vectors                 reciprocal lattice vectors
    12.156248680  0.000000000  0.000000000     0.082262220  0.000000000  0.000000000
     0.000000000  7.509981730  0.000000000     0.000000000  0.133156116  0.000000000
     0.000000000  0.000000000  7.115088277     0.000000000  0.000000000  0.140546394

  length of vectors
    12.156248680  7.509981730  7.115088277     0.082262220  0.133156116  0.140546394


 FORCES acting on ions
    electron-ion (+dipol)            ewald-force                    non-local-force                 convergence-correction
 -----------------------------------------------------------------------------------------------
   0.103E+02 0.102E+01 0.349E+02   -.103E+02 -.992E+00 -.348E+02   -.586E+00 -.126E-01 0.201E+00   -.164E-01 -.131E-02 -.302E-02
   0.103E+02 -.102E+01 0.349E+02   -.103E+02 0.992E+00 -.348E+02   -.586E+00 0.126E-01 0.201E+00   -.164E-01 0.131E-02 -.302E-02
   0.690E+01 0.479E+01 -.301E+02   -.685E+01 -.487E+01 0.300E+02   -.619E+00 0.681E-01 -.113E+00   -.161E-02 -.470E-02 -.802E-02
   0.690E+01 -.479E+01 -.301E+02   -.685E+01 0.487E+01 0.300E+02   -.619E+00 -.681E-01 -.113E+00   -.161E-02 0.470E-02 -.802E-02
   0.160E+01 0.123E+01 0.349E+02   -.152E+01 -.125E+01 -.348E+02   -.661E+00 0.279E-01 0.197E+00   0.159E-01 -.106E-02 -.342E-02
   0.160E+01 -.123E+01 0.349E+02   -.152E+01 0.125E+01 -.348E+02   -.661E+00 -.279E-01 0.197E+00   0.159E-01 0.106E-02 -.342E-02
   0.571E+01 0.275E+00 -.347E+02   -.567E+01 -.272E+00 0.347E+02   -.621E+00 -.612E-02 -.189E+00   0.286E-02 -.103E-02 -.778E-02
   0.571E+01 -.275E+00 -.347E+02   -.567E+01 0.272E+00 0.347E+02   -.621E+00 0.612E-02 -.189E+00   0.286E-02 0.103E-02 -.778E-02
   -.607E+01 -.124E-12 0.349E+02   0.603E+01 0.116E-13 -.348E+02   0.614E+00 0.000E+00 0.186E+00   0.285E-03 0.395E-13 0.678E-02
   -.159E+01 0.700E-13 -.355E+02   0.147E+01 -.118E-13 0.355E+02   0.691E+00 0.000E+00 -.230E+00   -.163E-01 -.117E-13 0.401E-02
   -.603E+01 0.118E-12 0.349E+02   0.603E+01 0.277E-13 -.348E+02   0.644E+00 0.000E+00 0.197E+00   -.178E-03 0.534E-13 0.226E-02
   -.106E+02 -.378E-14 -.356E+02   0.106E+02 0.104E-13 0.355E+02   0.584E+00 0.000E+00 -.195E+00   0.166E-01 -.124E-13 0.343E-02
   -.608E+01 0.984E-13 0.349E+02   0.603E+01 0.121E-13 -.348E+02   0.630E+00 0.000E+00 0.191E+00   0.190E-03 0.422E-13 0.638E-02
   0.368E+01 0.118E-11 -.372E+02   -.366E+01 -.115E-13 0.371E+02   0.704E+00 0.000E+00 -.239E+00   -.216E-01 -.179E-13 0.558E-02
   -.158E+02 0.157E-11 -.372E+02   0.157E+02 0.973E-14 0.371E+02   0.578E+00 0.000E+00 -.211E+00   0.213E-01 -.559E-14 0.664E-02
   0.770E+02 0.147E+01 -.388E+02   -.767E+02 -.145E+01 0.395E+02   -.469E-01 -.181E-01 -.249E+00   -.167E-01 -.267E-02 -.137E-03
   0.770E+02 -.147E+01 -.388E+02   -.767E+02 0.145E+01 0.395E+02   -.469E-01 0.181E-01 -.249E+00   -.167E-01 0.267E-02 -.137E-03
   0.778E+02 0.938E+01 0.306E+02   -.775E+02 -.939E+01 -.313E+02   -.851E-01 0.449E-01 0.225E+00   -.165E-01 -.114E-01 0.122E-01
   0.778E+02 -.938E+01 0.306E+02   -.775E+02 0.939E+01 -.313E+02   -.851E-01 -.449E-01 0.225E+00   -.165E-01 0.114E-01 0.122E-01
   0.577E+02 0.837E+01 -.355E+02   -.573E+02 -.841E+01 0.361E+02   -.213E+00 0.576E-01 -.228E+00   0.288E-01 -.109E-01 -.360E-02
   0.577E+02 -.837E+01 -.355E+02   -.573E+02 0.841E+01 0.361E+02   -.213E+00 -.576E-01 -.228E+00   0.288E-01 0.109E-01 -.360E-02
   0.680E+02 0.567E+00 0.391E+02   -.676E+02 -.558E+00 -.398E+02   -.104E+00 -.773E-02 0.245E+00   0.132E-01 -.244E-02 0.554E-02
   0.680E+02 -.567E+00 0.391E+02   -.676E+02 0.558E+00 -.398E+02   -.104E+00 0.773E-02 0.245E+00   0.132E-01 0.244E-02 0.554E-02
   -.689E+02 0.138E-12 -.397E+02   0.685E+02 0.795E-14 0.404E+02   0.131E+00 0.000E+00 -.240E+00   -.105E-01 0.168E-12 -.241E-02
   -.645E+02 0.167E-12 0.414E+02   0.641E+02 0.205E-13 -.421E+02   0.226E+00 0.000E+00 0.267E+00   -.226E-01 0.220E-12 -.202E-02
   -.734E+02 0.979E-13 -.416E+02   0.730E+02 -.205E-13 0.423E+02   0.984E-01 0.000E+00 -.260E+00   0.921E-02 0.163E-12 0.244E-03
   -.757E+02 -.698E-14 0.402E+02   0.754E+02 -.114E-13 -.409E+02   0.279E-01 0.000E+00 0.263E+00   0.166E-01 0.227E-12 -.173E-02
   -.684E+02 0.119E-11 -.399E+02   0.681E+02 0.942E-14 0.406E+02   0.122E+00 0.000E+00 -.228E+00   -.115E-01 0.191E-12 -.143E-03
   -.546E+02 -.149E-11 0.479E+02   0.543E+02 0.349E-13 -.486E+02   0.201E+00 0.000E+00 0.285E+00   -.344E-01 0.199E-12 -.115E-01
   -.772E+02 0.228E-11 -.512E+02   0.768E+02 0.361E-15 0.517E+02   0.340E-01 0.000E+00 -.171E+00   0.139E-01 0.155E-12 0.140E-01
   -.785E+02 -.513E-11 0.412E+02   0.781E+02 0.336E-14 -.419E+02   0.121E+00 0.000E+00 0.218E+00   0.186E-01 0.212E-12 -.458E-02
   -.310E+02 0.324E+00 0.143E+02   0.313E+02 -.321E+00 -.140E+02   -.745E+00 -.175E-02 -.654E+00   -.734E-02 -.151E-02 0.378E-02
   -.310E+02 -.324E+00 0.143E+02   0.313E+02 0.321E+00 -.140E+02   -.745E+00 0.175E-02 -.654E+00   -.734E-02 0.151E-02 0.378E-02
   -.264E+02 0.573E+01 -.132E+02   0.267E+02 -.573E+01 0.129E+02   -.555E+00 0.202E+00 0.666E+00   -.129E-01 -.660E-02 -.277E-03
   -.264E+02 -.573E+01 -.132E+02   0.267E+02 0.573E+01 0.129E+02   -.555E+00 -.202E+00 0.666E+00   -.129E-01 0.660E-02 -.277E-03
   -.370E+02 0.417E+01 0.114E+02   0.374E+02 -.419E+01 -.110E+02   -.853E+00 0.973E-01 -.729E+00   0.954E-02 -.472E-02 0.473E-02
   -.370E+02 -.417E+01 0.114E+02   0.374E+02 0.419E+01 -.110E+02   -.853E+00 -.973E-01 -.729E+00   0.954E-02 0.472E-02 0.473E-02
   -.347E+02 0.435E+00 -.144E+02   0.350E+02 -.425E+00 0.141E+02   -.765E+00 -.221E-05 0.651E+00   0.557E-02 -.140E-02 0.247E-02
   -.347E+02 -.435E+00 -.144E+02   0.350E+02 0.425E+00 0.141E+02   -.765E+00 0.221E-05 0.651E+00   0.557E-02 0.140E-02 0.247E-02
   0.339E+02 -.544E-13 0.146E+02   -.343E+02 0.245E-15 -.144E+02   0.764E+00 0.000E+00 -.645E+00   -.522E-02 -.696E-14 -.300E-02
   0.345E+02 0.776E-13 -.148E+02   -.348E+02 -.227E-13 0.145E+02   0.759E+00 0.000E+00 0.640E+00   -.731E-02 -.217E-14 -.171E-02
   0.308E+02 0.975E-13 0.155E+02   -.311E+02 -.271E-13 -.152E+02   0.751E+00 0.000E+00 -.649E+00   0.733E-02 -.877E-14 -.132E-02
   0.313E+02 0.814E-13 -.146E+02   -.316E+02 0.599E-14 0.143E+02   0.745E+00 0.000E+00 0.649E+00   0.833E-02 -.438E-14 -.332E-02
   0.344E+02 0.232E-13 0.148E+02   -.347E+02 0.953E-15 -.145E+02   0.764E+00 0.000E+00 -.649E+00   -.485E-02 -.130E-13 -.350E-02
   0.358E+02 -.702E-12 -.158E+02   -.361E+02 -.214E-13 0.155E+02   0.758E+00 0.000E+00 0.665E+00   -.794E-02 -.767E-14 0.572E-03
   0.274E+02 0.179E-11 0.202E+02   -.276E+02 -.298E-13 -.198E+02   0.569E+00 0.000E+00 -.440E+00   0.109E-01 -.146E-13 -.783E-02
   0.309E+02 0.924E-12 -.146E+02   -.312E+02 0.623E-14 0.143E+02   0.754E+00 0.000E+00 0.656E+00   0.850E-02 -.204E-14 -.288E-02
   -.698E+01 -.224E-11 0.399E+02   0.689E+01 -.165E-13 -.398E+02   0.538E+00 0.000E+00 0.188E-01   -.512E-03 0.588E-13 0.205E-02
 -----------------------------------------------------------------------------------------------
   -.941E-01 0.463E-10 -.134E+00   0.306E-12 0.429E-13 0.213E-13   0.974E-01 0.000E+00 0.123E+00   -.264E-02 0.272E-11 0.109E-01
 
 
 POSITION                                       TOTAL-FORCE (eV/Angst)
 -----------------------------------------------------------------------------------
      2.94060      1.87750      1.26862        -0.595700      0.010534      0.255224
      2.94060      5.63249      1.26862        -0.595700     -0.010534      0.255224
      5.97966      1.87750      2.28892        -0.575467     -0.023446     -0.252084
      5.97966      5.63249      2.28892        -0.575467      0.023446     -0.252084
      9.01872      1.87750      1.26862        -0.566963      0.000149      0.262567
      9.01872      5.63249      1.26862        -0.566963     -0.000149      0.262567
     12.05778      1.87750      2.28892        -0.581987     -0.004115     -0.265565
     12.05778      5.63249      2.28892        -0.581987      0.004115     -0.265565
      0.09847      0.00000      4.82616         0.577550      0.000000      0.263161
      3.13753      0.00000      5.84647         0.557498      0.000000     -0.249919
      6.17659      0.00000      4.82616         0.644233      0.000000      0.255964
      9.21565      0.00000      5.84647         0.601619      0.000000     -0.262235
      0.09847      3.75499      4.82616         0.586302      0.000000      0.270113
      3.13753      3.75499      5.84647         0.708510      0.000000     -0.305771
      9.21565      3.75499      5.84647         0.549254      0.000000     -0.290089
      2.14801      1.87750      3.93678         0.282480     -0.001112      0.436461
      2.14801      5.63249      3.93678         0.282480      0.001112      0.436461
      5.18707      1.87750      6.73585         0.260375      0.028734     -0.447749
      5.18707      5.63249      6.73585         0.260375     -0.028734     -0.447749
      8.22613      1.87750      3.93678         0.213266      0.002367      0.411790
      8.22613      5.63249      3.93678         0.213266     -0.002367      0.411790
     11.26520      1.87750      6.73585         0.258550     -0.000546     -0.433567
     11.26520      5.63249      6.73585         0.258550      0.000546     -0.433567
      0.89105      0.00000      0.37923        -0.249830      0.000000      0.440961
      3.93012      0.00000      3.17831        -0.232668      0.000000     -0.441440
      6.96918      0.00000      0.37923        -0.231552      0.000000      0.433134
     10.00824      0.00000      3.17831        -0.274874      0.000000     -0.429225
      0.89105      3.75499      0.37923        -0.254966      0.000000      0.445356
      3.93012      3.75499      3.17831        -0.207985      0.000000     -0.415185
      6.96918      3.75499      0.37923        -0.335688      0.000000      0.387636
     10.00824      3.75499      3.17831        -0.270756      0.000000     -0.445134
      1.52257      1.87750      6.24918        -0.443034     -0.000146     -0.346394
      1.52257      5.63249      6.24918        -0.443034      0.000146     -0.346394
      4.56163      1.87750      4.42345        -0.342722      0.201276      0.415136
      4.56163      5.63249      4.42345        -0.342722     -0.201276      0.415136
      7.60069      1.87750      6.24918        -0.521657      0.070490     -0.406487
      7.60069      5.63249      6.24918        -0.521657     -0.070490     -0.406487
     10.63976      1.87750      4.42345        -0.441756      0.009140      0.360530
     10.63976      5.63249      4.42345        -0.441756     -0.009140      0.360530
      1.51649      0.00000      2.69164         0.418702      0.000000     -0.349703
      4.55555      0.00000      0.86591         0.468531      0.000000      0.307557
      7.59462      0.00000      2.69164         0.435508      0.000000     -0.345428
     10.63368      0.00000      0.86591         0.450464      0.000000      0.346044
      1.51649      3.75499      2.69164         0.436703      0.000000     -0.343934
      4.55555      3.75499      0.86591         0.424422      0.000000      0.346438
      7.59462      3.75499      2.69164         0.420566      0.000000     -0.052537
     10.63368      3.75499      0.86591         0.439286      0.000000      0.345094
      6.17659      3.75499      4.82616         0.448398      0.000000      0.109422
 -----------------------------------------------------------------------------------
    total drift:                                0.000645      0.000000      0.000729


--------------------------------------------------------------------------------------------------------



  FREE ENERGIE OF THE ION-ELECTRON SYSTEM (eV)
  ---------------------------------------------------
  free  energy   TOTEN  =      -312.97634906 eV

  energy  without entropy=     -313.06126134  energy(sigma->0) =     -313.00465315
 


--------------------------------------------------------------------------------------------------------


    POTLOK:  cpu time    0.1750: real time    0.2459


--------------------------------------------------------------------------------------------------------


     LOOP+:  cpu time13304.0115: real time13358.8614
    4ORBIT:  cpu time    0.0000: real time    0.0000
 


 total charge     
 
# of ion       s       p       d       tot
------------------------------------------
    1        0.255   0.283   5.048   5.586
    2        0.255   0.283   5.048   5.586
    3        0.256   0.283   5.046   5.584
    4        0.256   0.283   5.046   5.584
    5        0.255   0.283   5.049   5.587
    6        0.255   0.283   5.049   5.587
    7        0.255   0.283   5.049   5.587
    8        0.255   0.283   5.049   5.587
    9        0.255   0.283   5.049   5.587
   10        0.255   0.283   5.048   5.586
   11        0.256   0.283   5.049   5.588
   12        0.255   0.283   5.048   5.586
   13        0.255   0.283   5.048   5.586
   14        0.255   0.282   5.048   5.585
   15        0.255   0.282   5.049   5.586
   16        0.442   0.510   8.426   9.377
   17        0.442   0.510   8.426   9.377
   18        0.442   0.506   8.426   9.374
   19        0.442   0.506   8.426   9.374
   20        0.441   0.507   8.425   9.374
   21        0.441   0.507   8.425   9.374
   22        0.442   0.510   8.426   9.377
   23        0.442   0.510   8.426   9.377
   24        0.442   0.510   8.426   9.377
   25        0.442   0.508   8.427   9.377
   26        0.442   0.510   8.426   9.378
   27        0.442   0.509   8.427   9.378
   28        0.442   0.510   8.426   9.377
   29        0.441   0.508   8.425   9.374
   30        0.442   0.506   8.425   9.373
   31        0.442   0.510   8.425   9.378
   32        1.103   1.323   0.123   2.550
   33        1.103   1.323   0.123   2.550
   34        1.103   1.312   0.124   2.539
   35        1.103   1.312   0.124   2.539
   36        1.104   1.316   0.124   2.544
   37        1.104   1.316   0.124   2.544
   38        1.103   1.324   0.123   2.550
   39        1.103   1.324   0.123   2.550
   40        1.103   1.324   0.123   2.550
   41        1.104   1.323   0.123   2.550
   42        1.103   1.323   0.124   2.550
   43        1.103   1.323   0.123   2.550
   44        1.103   1.323   0.123   2.550
   45        1.103   1.324   0.123   2.551
   46        1.103   1.312   0.124   2.540
   47        1.103   1.323   0.124   2.550
   48        0.324   0.366   6.236   6.926
--------------------------------------------------
tot         28.874  33.870 218.746 281.490
 


 magnetization (x)
 
# of ion       s       p       d       tot
------------------------------------------
    1        0.019   0.011   3.074   3.105
    2        0.019   0.011   3.074   3.105
    3        0.020   0.012   3.089   3.121
    4        0.020   0.012   3.089   3.121
    5        0.019   0.011   3.071   3.101
    6        0.019   0.011   3.071   3.101
    7        0.019   0.010   3.067   3.096
    8        0.019   0.010   3.067   3.096
    9        0.019   0.010   3.067   3.097
   10        0.019   0.011   3.075   3.105
   11        0.019   0.012   3.062   3.092
   12        0.019   0.011   3.074   3.105
   13        0.019   0.010   3.073   3.103
   14        0.019   0.011   3.063   3.094
   15        0.020   0.011   3.056   3.087
   16       -0.019  -0.042   0.106   0.044
   17       -0.019  -0.042   0.106   0.044
   18       -0.018  -0.040   0.096   0.038
   19       -0.018  -0.040   0.096   0.038
   20       -0.018  -0.040   0.105   0.046
   21       -0.018  -0.040   0.105   0.046
   22       -0.019  -0.042   0.101   0.040
   23       -0.019  -0.042   0.101   0.040
   24       -0.019  -0.042   0.100   0.039
   25       -0.018  -0.040   0.111   0.053
   26       -0.019  -0.042   0.102   0.042
   27       -0.019  -0.041   0.103   0.044
   28       -0.019  -0.042   0.102   0.040
   29       -0.018  -0.041   0.094   0.035
   30       -0.018  -0.039   0.104   0.047
   31       -0.020  -0.043   0.104   0.042
   32       -0.016  -0.121   0.002  -0.134
   33       -0.016  -0.121   0.002  -0.134
   34       -0.013  -0.109   0.000  -0.122
   35       -0.013  -0.109   0.000  -0.122
   36       -0.014  -0.112   0.001  -0.125
   37       -0.014  -0.112   0.001  -0.125
   38       -0.016  -0.121   0.002  -0.134
   39       -0.016  -0.121   0.002  -0.134
   40       -0.016  -0.121   0.002  -0.135
   41       -0.015  -0.120   0.002  -0.133
   42       -0.015  -0.119   0.002  -0.133
   43       -0.016  -0.120   0.002  -0.134
   44       -0.015  -0.121   0.002  -0.134
   45       -0.016  -0.120   0.002  -0.134
   46       -0.013  -0.110   0.000  -0.123
   47       -0.016  -0.121   0.002  -0.135
   48        0.011  -0.002   2.367   2.376
--------------------------------------------------
tot         -0.234  -2.373  50.104  47.497
 

 total amount of memory used by VASP MPI-rank0   558265. kBytes
=======================================================================

   base      :      30000. kBytes
   nonl-proj :      83232. kBytes
   fftplans  :       3728. kBytes
   grid      :      10440. kBytes
   one-center:        248. kBytes
   wavefun   :     430617. kBytes
 
  
  
 General timing and accounting informations for this job:
 ========================================================
  
                  Total CPU time used (sec):    13525.775
                            User time (sec):    13411.025
                          System time (sec):      114.751
                         Elapsed time (sec):    13589.127
  
                   Maximum memory used (kb):      793496.
                   Average memory used (kb):           0.
  
                          Minor page faults:        67288
                          Major page faults:          663
                 Voluntary context switches:         7815
