 running on   24 total cores
 distrk:  each k-point on   24 cores,    1 groups
 distr:  one band on    6 cores,    4 groups
 using from now: INCAR     
 vasp.6.1.1 19Jun20 (build Nov 30 2020 11:51:22) complex                        
  
 POSCAR found type information on POSCAR MnNiGeFe
 POSCAR found :  4 types and      48 ions
 scaLAPACK will be used
 -----------------------------------------------------------------------------
|                                                                             |
|               ----> ADVICE to this user running VASP <----                  |
|                                                                             |
|     You have a (more or less) 'large supercell' and for larger cells it     |
|     might be more efficient to use real-space projection operators.         |
|     Therefore, try LREAL= Auto in the INCAR file.                           |
|     Mind: For very accurate calculation, you might also keep the            |
|     reciprocal projection scheme (i.e. LREAL=.FALSE.).                      |
|                                                                             |
 -----------------------------------------------------------------------------

 LDA part: xc-table for Pade appr. of Perdew
 POSCAR, INCAR and KPOINTS ok, starting setup
 FFT: planning ...
 WAVECAR not read
 entering main loop
       N       E                     dE             d eps       ncg     rms          rms(c)
DAV:   1     0.285987785752E+04    0.28599E+04   -0.10835E+05 86400   0.105E+03
DAV:   2     0.190938816970E+03   -0.26689E+04   -0.23740E+04 86400   0.269E+02
DAV:   3    -0.263669813180E+03   -0.45461E+03   -0.37602E+03 86472   0.126E+02
DAV:   4    -0.296259343839E+03   -0.32590E+02   -0.31297E+02106056   0.402E+01
DAV:   5    -0.297090041650E+03   -0.83070E+00   -0.82896E+00104280   0.663E+00    0.106E+02
DAV:   6    -0.363588399087E+03   -0.66498E+02   -0.21402E+02109416   0.106E+02    0.109E+02
DAV:   7    -0.314641178373E+03    0.48947E+02   -0.19198E+02105896   0.976E+01    0.811E+01
DAV:   8    -0.326107733810E+03   -0.11467E+02   -0.41449E+01114304   0.747E+01    0.760E+01
DAV:   9    -0.310044275472E+03    0.16063E+02   -0.35861E+01118448   0.523E+01    0.491E+01
DAV:  10    -0.308807163427E+03    0.12371E+01   -0.27821E+01117928   0.489E+01    0.533E+01
DAV:  11    -0.300661919376E+03    0.81452E+01   -0.17775E+01133376   0.312E+01    0.252E+01
DAV:  12    -0.307608733856E+03   -0.69468E+01   -0.44174E+00125304   0.244E+01    0.284E+01
DAV:  13    -0.307512544347E+03    0.96190E-01   -0.55189E+00120824   0.207E+01    0.163E+01
DAV:  14    -0.314006436841E+03   -0.64939E+01   -0.42689E+00126976   0.213E+01    0.265E+01
DAV:  15    -0.312116125572E+03    0.18903E+01   -0.51656E+00138464   0.193E+01    0.111E+01
DAV:  16    -0.312096502017E+03    0.19624E-01   -0.12197E+00126232   0.756E+00    0.781E+00
DAV:  17    -0.312102038353E+03   -0.55363E-02   -0.71077E-01120176   0.655E+00    0.607E+00
DAV:  18    -0.312177694261E+03   -0.75656E-01   -0.19080E-01121152   0.480E+00    0.469E+00
DAV:  19    -0.312115762507E+03    0.61932E-01   -0.21565E-01116560   0.525E+00    0.297E+00
DAV:  20    -0.312095319819E+03    0.20443E-01   -0.83758E-02143072   0.199E+00    0.160E+00
DAV:  21    -0.312090150633E+03    0.51692E-02   -0.38581E-02118592   0.165E+00    0.118E+00
DAV:  22    -0.312091864744E+03   -0.17141E-02   -0.16854E-02119632   0.750E-01    0.929E-01
DAV:  23    -0.312094572374E+03   -0.27076E-02   -0.49509E-03114728   0.726E-01    0.905E-01
DAV:  24    -0.312093265190E+03    0.13072E-02   -0.39162E-03115960   0.649E-01    0.595E-01
DAV:  25    -0.312093266688E+03   -0.14980E-05   -0.19771E-03144032   0.357E-01    0.451E-01
DAV:  26    -0.312092779030E+03    0.48766E-03   -0.13925E-03122296   0.369E-01    0.319E-01
DAV:  27    -0.312092439446E+03    0.33958E-03   -0.50664E-04115008   0.187E-01    0.162E-01
DAV:  28    -0.312092433492E+03    0.59534E-05   -0.23264E-04117344   0.147E-01    0.136E-01
DAV:  29    -0.312092369425E+03    0.64067E-04   -0.15553E-04125176   0.105E-01    0.747E-02
DAV:  30    -0.312092370738E+03   -0.13124E-05   -0.40391E-05144392   0.395E-02    0.641E-02
DAV:  31    -0.312092363088E+03    0.76495E-05   -0.33930E-05116032   0.475E-02    0.506E-02
DAV:  32    -0.312092356494E+03    0.65941E-05   -0.92840E-06107376   0.236E-02    0.276E-02
DAV:  33    -0.312092355806E+03    0.68805E-06   -0.71980E-06102144   0.268E-02
   1 F= -.31209236E+03 E0= -.31209997E+03  d E =0.228430E-01  mag=    45.1794
