 vasp.6.1.1 19Jun20 (build Nov 30 2020 11:51:22) complex                        
  
 executed on             LinuxIFC date 2021.03.23  22:14:38
 running on   24 total cores
 distrk:  each k-point on   24 cores,    1 groups
 distr:  one band on NCORE=   6 cores,    4 groups


--------------------------------------------------------------------------------------------------------


 INCAR:
 POTCAR:    PAW_PBE Mn 06Sep2000                  
 POTCAR:    PAW_PBE Ni 02Aug2007                  
 POTCAR:    PAW_PBE Ge 05Jan2001                  
 POTCAR:    PAW_PBE Fe 06Sep2000                  
 POTCAR:    PAW_PBE Mn 06Sep2000                  
   SHA256 =  791c87526310ff945dc83749a51ee60ee299d345ff72743aeb14609b9ed68bfc Mn/POTCAR             
   COPYR  = (c) Copyright 06Sep2000 Georg Kresse                                                    
   COPYR  = This file is part of the software VASP. Any use, copying, and all other rights are regul
   COPYR  = If you do not have a valid VASP license, you may not use, copy or distribute this file. 
   VRHFIN =Mn: d6 s1                                                                                
   LEXCH  = PE                                                                                      
   EATOM  =   416.7541 eV,   30.6306 Ry                                                             
                                                                                                    
   TITEL  = PAW_PBE Mn 06Sep2000                                                                    
   LULTRA =        F    use ultrasoft PP ?                                                          
   IUNSCR =        1    unscreen: 0-lin 1-nonlin 2-no                                               
   RPACOR =    2.000    partial core radius                                                         
   POMASS =   54.938; ZVAL   =    7.000    mass and valenz                                          
   RCORE  =    2.300    outmost cutoff radius                                                       
   RWIGS  =    2.500; RWIGS  =    1.323    wigner-seitz radius (au A)                               
   ENMAX  =  269.864; ENMIN  =  202.398 eV                                                          
   RCLOC  =    1.725    cutoff for local pot                                                        
   LCOR   =        T    correct aug charges                                                         
   LPAW   =        T    paw PP                                                                      
   EAUG   =  500.711                                                                                
   DEXC   =    0.000                                                                                
   RMAX   =    2.343    core radius for proj-oper                                                   
   RAUG   =    1.300    factor for augmentation sphere                                              
   RDEP   =    2.338    radius for radial grids                                                     
   RDEPT  =    1.911    core radius for aug-charge                                                  
                                                                                                    
   Atomic configuration                                                                             
    9 entries                                                                                       
     n  l   j            E        occ.                                                              
     1  0  0.50     -6424.8288   2.0000                                                             
     2  0  0.50      -739.1154   2.0000                                                             
     2  1  1.50      -625.3949   6.0000                                                             
     3  0  0.50       -81.6100   2.0000                                                             
     3  1  1.50       -50.4667   6.0000                                                             
     3  2  2.50        -3.3745   6.0000                                                             
     4  0  0.50        -4.1331   1.0000                                                             
     4  1  0.50        -4.0817   0.0000                                                             
     4  3  2.50        -1.3606   0.0000                                                             
   Description                                                                                      
     l       E           TYP  RCUT    TYP  RCUT                                                     
     2     -3.3744664     23  2.300                                                                 
     2     -4.7350490     23  2.300                                                                 
     0     -4.1331408     23  2.300                                                                 
     0      7.6656614     23  2.300                                                                 
     1     -2.7211652     23  2.300                                                                 
     1     20.4087390     23  2.300                                                                 
  local pseudopotential read in
  partial core-charges read in
  partial kinetic energy density read in
  atomic valenz-charges read in
  non local Contribution for L=           2  read in
    real space projection operators read in
  non local Contribution for L=           2  read in
    real space projection operators read in
  non local Contribution for L=           0  read in
    real space projection operators read in
  non local Contribution for L=           0  read in
    real space projection operators read in
  non local Contribution for L=           1  read in
    real space projection operators read in
  non local Contribution for L=           1  read in
    real space projection operators read in
    PAW grid and wavefunctions read in
 
   number of l-projection  operators is LMAX  =           6
   number of lm-projection operators is LMMAX =          18
 
 POTCAR:    PAW_PBE Ni 02Aug2007                  
   SHA256 =  0534bc51ca8003dfef23f56753fef9fdd3e22eac8d719fccacb59f3e6b7a69c7 Ni/POTCAR             
   COPYR  = (c) Copyright 02Aug2007 Georg Kresse                                                    
   COPYR  = This file is part of the software VASP. Any use, copying, and all other rights are regul
   COPYR  = If you do not have a valid VASP license, you may not use, copy or distribute this file. 
   VRHFIN =Ni:                                                                                      
   LEXCH  = PE                                                                                      
   EATOM  =  1077.6739 eV,   79.2068 Ry                                                             
                                                                                                    
   TITEL  = PAW_PBE Ni 02Aug2007                                                                    
   LULTRA =        F    use ultrasoft PP ?                                                          
   IUNSCR =        1    unscreen: 0-lin 1-nonlin 2-no                                               
   RPACOR =    2.000    partial core radius                                                         
   POMASS =   58.690; ZVAL   =   10.000    mass and valenz                                          
   RCORE  =    2.300    outmost cutoff radius                                                       
   RWIGS  =    2.430; RWIGS  =    1.286    wigner-seitz radius (au A)                               
   ENMAX  =  269.532; ENMIN  =  202.149 eV                                                          
   RCLOC  =    1.201    cutoff for local pot                                                        
   LCOR   =        T    correct aug charges                                                         
   LPAW   =        T    paw PP                                                                      
   EAUG   =  544.565                                                                                
   DEXC   =    0.000                                                                                
   RMAX   =    2.357    core radius for proj-oper                                                   
   RAUG   =    1.300    factor for augmentation sphere                                              
   RDEP   =    2.390    radius for radial grids                                                     
   RDEPT  =    1.838    core radius for aug-charge                                                  
                                                                                                    
   Atomic configuration                                                                             
    9 entries                                                                                       
     n  l   j            E        occ.                                                              
     1  0  0.50     -8206.4253   2.0000                                                             
     2  0  0.50      -976.1748   2.0000                                                             
     2  1  1.50      -839.0571   6.0000                                                             
     3  0  0.50      -105.9991   2.0000                                                             
     3  1  1.50       -66.4603   6.0000                                                             
     3  2  2.50        -4.6458   9.0000                                                             
     4  0  0.50        -4.4926   1.0000                                                             
     4  1  1.50        -4.0817   0.0000                                                             
     4  3  2.50        -1.3606   0.0000                                                             
   Description                                                                                      
     l       E           TYP  RCUT    TYP  RCUT                                                     
     2     -4.6457903     23  2.300                                                                 
     2     -6.0063729     23  2.300                                                                 
     0     -4.4925590     23  2.300                                                                 
     0      5.0102601     23  2.300                                                                 
     1     -2.7211652     23  2.300                                                                 
     1     16.5183231     23  2.300                                                                 
  local pseudopotential read in
  partial core-charges read in
  partial kinetic energy density read in
  atomic valenz-charges read in
  non local Contribution for L=           2  read in
    real space projection operators read in
  non local Contribution for L=           2  read in
    real space projection operators read in
  non local Contribution for L=           0  read in
    real space projection operators read in
  non local Contribution for L=           0  read in
    real space projection operators read in
  non local Contribution for L=           1  read in
    real space projection operators read in
  non local Contribution for L=           1  read in
    real space projection operators read in
    PAW grid and wavefunctions read in
 
   number of l-projection  operators is LMAX  =           6
   number of lm-projection operators is LMMAX =          18
 
 POTCAR:    PAW_PBE Ge 05Jan2001                  
   SHA256 =  7ff11deedcda39f1950abeda971a84a1f98a719a97bc9679a0df455c008734f8 Ge/POTCAR             
   COPYR  = (c) Copyright 05Jan2001 Georg Kresse                                                    
   COPYR  = This file is part of the software VASP. Any use, copying, and all other rights are regul
   COPYR  = If you do not have a valid VASP license, you may not use, copy or distribute this file. 
   VRHFIN =Ge: s2p2                                                                                 
   LEXCH  = PE                                                                                      
   EATOM  =   104.9960 eV,    7.7170 Ry                                                             
                                                                                                    
   TITEL  = PAW_PBE Ge 05Jan2001                                                                    
   LULTRA =        F    use ultrasoft PP ?                                                          
   IUNSCR =        1    unscreen: 0-lin 1-nonlin 2-no                                               
   RPACOR =    2.170    partial core radius                                                         
   POMASS =   72.610; ZVAL   =    4.000    mass and valenz                                          
   RCORE  =    2.300    outmost cutoff radius                                                       
   RWIGS  =    2.300; RWIGS  =    1.217    wigner-seitz radius (au A)                               
   ENMAX  =  173.807; ENMIN  =  130.355 eV                                                          
   ICORE  =        3    local potential                                                             
   LCOR   =        T    correct aug charges                                                         
   LPAW   =        T    paw PP                                                                      
   EAUG   =  385.843                                                                                
   DEXC   =    0.000                                                                                
   RMAX   =    2.342    core radius for proj-oper                                                   
   RAUG   =    1.300    factor for augmentation sphere                                              
   RDEP   =    2.318    radius for radial grids                                                     
   RDEPT  =    2.103    core radius for aug-charge                                                  
                                                                                                    
   Atomic configuration                                                                             
   10 entries                                                                                       
     n  l   j            E        occ.                                                              
     1  0  0.50    -10959.8463   2.0000                                                             
     2  0  0.50     -1371.6056   2.0000                                                             
     2  1  1.50     -1198.4791   6.0000                                                             
     3  0  0.50      -168.4733   2.0000                                                             
     3  1  1.50      -115.6019   6.0000                                                             
     3  2  2.50       -29.3106  10.0000                                                             
     4  0  0.50       -11.7309   2.0000                                                             
     4  1  0.50        -3.8952   2.0000                                                             
     4  2  1.50        -4.0817   0.0000                                                             
     4  3  2.50        -4.0817   0.0000                                                             
   Description                                                                                      
     l       E           TYP  RCUT    TYP  RCUT                                                     
     0    -11.7309493     23  2.300                                                                 
     0     -7.4578696     23  2.300                                                                 
     1     -3.8952261     23  2.300                                                                 
     1      6.1178114     23  2.300                                                                 
     2     -4.0817478     23  2.300                                                                 
     3     -1.3605826      7  2.300                                                                 
  local pseudopotential read in
  partial core-charges read in
  partial kinetic energy density read in
  atomic valenz-charges read in
  non local Contribution for L=           0  read in
    real space projection operators read in
  non local Contribution for L=           0  read in
    real space projection operators read in
  non local Contribution for L=           1  read in
    real space projection operators read in
  non local Contribution for L=           1  read in
    real space projection operators read in
  non local Contribution for L=           2  read in
    real space projection operators read in
    PAW grid and wavefunctions read in
 
   number of l-projection  operators is LMAX  =           5
   number of lm-projection operators is LMMAX =          13
 
 POTCAR:    PAW_PBE Fe 06Sep2000                  
   SHA256 =  cd5a22d9368cc8b5cc476bea79732366149640da08ac9009b0e1b7fc627eea28 Fe/POTCAR             
   COPYR  = (c) Copyright 06Sep2000 Georg Kresse                                                    
   COPYR  = This file is part of the software VASP. Any use, copying, and all other rights are regul
   COPYR  = If you do not have a valid VASP license, you may not use, copy or distribute this file. 
   VRHFIN =Fe:  d7 s1                                                                               
   LEXCH  = PE                                                                                      
   EATOM  =   594.3153 eV,   43.6809 Ry                                                             
                                                                                                    
   TITEL  = PAW_PBE Fe 06Sep2000                                                                    
   LULTRA =        F    use ultrasoft PP ?                                                          
   IUNSCR =        1    unscreen: 0-lin 1-nonlin 2-no                                               
   RPACOR =    2.000    partial core radius                                                         
   POMASS =   55.847; ZVAL   =    8.000    mass and valenz                                          
   RCORE  =    2.300    outmost cutoff radius                                                       
   RWIGS  =    2.460; RWIGS  =    1.302    wigner-seitz radius (au A)                               
   ENMAX  =  267.882; ENMIN  =  200.911 eV                                                          
   RCLOC  =    1.701    cutoff for local pot                                                        
   LCOR   =        T    correct aug charges                                                         
   LPAW   =        T    paw PP                                                                      
   EAUG   =  511.368                                                                                
   DEXC   =    0.000                                                                                
   RMAX   =    2.356    core radius for proj-oper                                                   
   RAUG   =    1.300    factor for augmentation sphere                                              
   RDEP   =    2.442    radius for radial grids                                                     
   RDEPT  =    1.890    core radius for aug-charge                                                  
                                                                                                    
   Atomic configuration                                                                             
    9 entries                                                                                       
     n  l   j            E        occ.                                                              
     1  0  0.50     -6993.8440   2.0000                                                             
     2  0  0.50      -814.6047   2.0000                                                             
     2  1  1.50      -693.3689   6.0000                                                             
     3  0  0.50       -89.4732   2.0000                                                             
     3  1  1.50       -55.6373   6.0000                                                             
     3  2  2.50        -3.8151   7.0000                                                             
     4  0  0.50        -4.2551   1.0000                                                             
     4  1  1.50        -3.4015   0.0000                                                             
     4  3  2.50        -1.3606   0.0000                                                             
   Description                                                                                      
     l       E           TYP  RCUT    TYP  RCUT                                                     
     2     -3.8151135     23  2.300                                                                 
     2     -5.1756961     23  2.300                                                                 
     0     -4.2550963     23  2.300                                                                 
     0      7.2035603     23  2.300                                                                 
     1     -2.7211652     23  2.300                                                                 
     1     18.4316424     23  2.300                                                                 
  local pseudopotential read in
  partial core-charges read in
  partial kinetic energy density read in
  atomic valenz-charges read in
  non local Contribution for L=           2  read in
    real space projection operators read in
  non local Contribution for L=           2  read in
    real space projection operators read in
  non local Contribution for L=           0  read in
    real space projection operators read in
  non local Contribution for L=           0  read in
    real space projection operators read in
  non local Contribution for L=           1  read in
    real space projection operators read in
  non local Contribution for L=           1  read in
    real space projection operators read in
    PAW grid and wavefunctions read in
 
   number of l-projection  operators is LMAX  =           6
   number of lm-projection operators is LMMAX =          18
 
 -----------------------------------------------------------------------------
|                                                                             |
|               ----> ADVICE to this user running VASP <----                  |
|                                                                             |
|     You have a (more or less) 'large supercell' and for larger cells it     |
|     might be more efficient to use real-space projection operators.         |
|     Therefore, try LREAL= Auto in the INCAR file.                           |
|     Mind: For very accurate calculation, you might also keep the            |
|     reciprocal projection scheme (i.e. LREAL=.FALSE.).                      |
|                                                                             |
 -----------------------------------------------------------------------------

  PAW_PBE Mn 06Sep2000                  :
 energy of atom  1       EATOM= -416.7541
 kinetic energy error for atom=    0.0033 (will be added to EATOM!!)
  PAW_PBE Ni 02Aug2007                  :
 energy of atom  2       EATOM=-1077.6739
 kinetic energy error for atom=    0.0038 (will be added to EATOM!!)
  PAW_PBE Ge 05Jan2001                  :
 energy of atom  3       EATOM= -104.9960
 kinetic energy error for atom=    0.0003 (will be added to EATOM!!)
  PAW_PBE Fe 06Sep2000                  :
 energy of atom  4       EATOM= -594.3153
 kinetic energy error for atom=    0.0034 (will be added to EATOM!!)
 
 
 POSCAR: MnNiGe_orth
  positions in direct lattice
  velocities in cartesian coordinates
 exchange correlation table for  LEXCH =        8
   RHO(1)=    0.500       N(1)  =     2000
   RHO(2)=  100.500       N(2)  =     4000
 


--------------------------------------------------------------------------------------------------------


 ion  position               nearest neighbor table
   1  0.242  0.250  0.178-  41 2.43  45 2.43  32 2.49  44 2.67  40 2.67  16 2.70  18 2.70  29 2.77
                            25 2.77  24 2.83  28 2.83  14 3.07  10 3.07   7 3.11   3 3.11
   2  0.242  0.750  0.178-  41 2.43  45 2.43  33 2.49  44 2.67  40 2.67  17 2.70  19 2.70  29 2.77
                            25 2.77  24 2.83  28 2.83  14 3.07  10 3.07   8 3.11   4 3.11
   3  0.492  0.250  0.322-  42 2.43  46 2.43  34 2.49  45 2.67  41 2.67  18 2.70  20 2.70  30 2.77
                            26 2.77  25 2.83  29 2.83  11 3.07  48 3.07   1 3.11   5 3.11
   4  0.492  0.750  0.322-  42 2.43  46 2.43  35 2.49  45 2.67  41 2.67  19 2.70  21 2.70  30 2.77
                            26 2.77  25 2.83  29 2.83  11 3.07  48 3.07   2 3.11   6 3.11
   5  0.742  0.250  0.178-  43 2.43  47 2.43  36 2.49  46 2.67  42 2.67  20 2.70  22 2.70  31 2.77
                            27 2.77  26 2.83  30 2.83  15 3.07  12 3.07   7 3.11   3 3.11
   6  0.742  0.750  0.178-  43 2.43  47 2.43  37 2.49  46 2.67  42 2.67  21 2.70  23 2.70  31 2.77
                            27 2.77  26 2.83  30 2.83  15 3.07  12 3.07   8 3.11   4 3.11
   7  0.992  0.250  0.322-  40 2.43  44 2.43  38 2.49  43 2.67  47 2.67  22 2.70  16 2.70  28 2.77
                            24 2.77  31 2.83  27 2.83  13 3.07   9 3.07   1 3.11   5 3.11
   8  0.992  0.750  0.322-  40 2.43  44 2.43  39 2.49  43 2.67  47 2.67  23 2.70  17 2.70  28 2.77
                            24 2.77  31 2.83  27 2.83  13 3.07   9 3.07   2 3.11   6 3.11
   9  0.008  0.000  0.678-  38 2.43  39 2.43  40 2.49  33 2.67  32 2.67  24 2.70  27 2.70  23 2.77
                            22 2.77  17 2.83  16 2.83   8 3.07   7 3.07  10 3.11  12 3.11
  10  0.258  0.000  0.822-  32 2.43  33 2.43  41 2.49  35 2.67  34 2.67  25 2.70  24 2.70  17 2.77
                            16 2.77  19 2.83  18 2.83   2 3.07   1 3.07  11 3.11   9 3.11
  11  0.508  0.000  0.678-  34 2.43  35 2.43  42 2.49  37 2.67  36 2.67  26 2.70  25 2.70  19 2.77
                            18 2.77  21 2.83  20 2.83   4 3.07   3 3.07  10 3.11  12 3.11
  12  0.758  0.000  0.822-  36 2.43  37 2.43  43 2.49  39 2.67  38 2.67  27 2.70  26 2.70  21 2.77
                            20 2.77  23 2.83  22 2.83   6 3.07   5 3.07  11 3.11   9 3.11
  13  0.008  0.500  0.678-  38 2.43  39 2.43  44 2.49  33 2.67  32 2.67  28 2.70  31 2.70  23 2.77
                            22 2.77  17 2.83  16 2.83   8 3.07   7 3.07  14 3.11  15 3.11
  14  0.258  0.500  0.822-  32 2.43  33 2.43  45 2.49  35 2.67  34 2.67  29 2.70  28 2.70  17 2.77
                            16 2.77  19 2.83  18 2.83   2 3.07   1 3.07  48 3.11  13 3.11
  15  0.758  0.500  0.822-  36 2.43  37 2.43  47 2.49  39 2.67  38 2.67  31 2.70  30 2.70  21 2.77
                            20 2.77  23 2.83  22 2.83   6 3.07   5 3.07  48 3.11  13 3.11
  16  0.177  0.250  0.553-  40 2.27  44 2.27  32 2.32  34 2.39  25 2.62  29 2.62   1 2.70   7 2.70
                            10 2.77  14 2.77  13 2.83   9 2.83
  17  0.177  0.750  0.553-  40 2.27  44 2.27  33 2.32  35 2.39  25 2.62  29 2.62   2 2.70   8 2.70
                            10 2.77  14 2.77  13 2.83   9 2.83
  18  0.427  0.250  0.947-  41 2.27  45 2.27  34 2.32  36 2.39  26 2.62  30 2.62   3 2.70   1 2.70
                            11 2.77  48 2.77  14 2.83  10 2.83
  19  0.427  0.750  0.947-  41 2.27  45 2.27  35 2.32  37 2.39  26 2.62  30 2.62   4 2.70   2 2.70
                            11 2.77  48 2.77  14 2.83  10 2.83
  20  0.677  0.250  0.553-  42 2.27  46 2.27  36 2.32  38 2.39  27 2.62  31 2.62   5 2.70   3 2.70
                            12 2.77  15 2.77  11 2.83  48 2.83
  21  0.677  0.750  0.553-  42 2.27  46 2.27  37 2.32  39 2.39  27 2.62  31 2.62   6 2.70   4 2.70
                            12 2.77  15 2.77  11 2.83  48 2.83
  22  0.927  0.250  0.947-  43 2.27  47 2.27  38 2.32  32 2.39  24 2.62  28 2.62   7 2.70   5 2.70
                             9 2.77  13 2.77  12 2.83  15 2.83
  23  0.927  0.750  0.947-  43 2.27  47 2.27  39 2.32  33 2.39  24 2.62  28 2.62   8 2.70   6 2.70
                             9 2.77  13 2.77  12 2.83  15 2.83
  24  0.073  0.000  0.053-  32 2.27  33 2.27  40 2.32  43 2.39  22 2.62  23 2.62   9 2.70  10 2.70
                             7 2.77   8 2.77   1 2.83   2 2.83
  25  0.323  0.000  0.447-  34 2.27  35 2.27  41 2.32  40 2.39  16 2.62  17 2.62  10 2.70  11 2.70
                             1 2.77   2 2.77   3 2.83   4 2.83
  26  0.573  0.000  0.053-  36 2.27  37 2.27  42 2.32  41 2.39  18 2.62  19 2.62  11 2.70  12 2.70
                             3 2.77   4 2.77   5 2.83   6 2.83
  27  0.823  0.000  0.447-  38 2.27  39 2.27  43 2.32  42 2.39  20 2.62  21 2.62  12 2.70   9 2.70
                             5 2.77   6 2.77   7 2.83   8 2.83
  28  0.073  0.500  0.053-  32 2.27  33 2.27  44 2.32  47 2.39  22 2.62  23 2.62  13 2.70  14 2.70
                             7 2.77   8 2.77   1 2.83   2 2.83
  29  0.323  0.500  0.447-  34 2.27  35 2.27  45 2.32  44 2.39  16 2.62  17 2.62  14 2.70  48 2.70
                             1 2.77   2 2.77   3 2.83   4 2.83
  30  0.573  0.500  0.053-  36 2.27  37 2.27  46 2.32  45 2.39  18 2.62  19 2.62  48 2.70  15 2.70
                             3 2.77   4 2.77   5 2.83   6 2.83
  31  0.823  0.500  0.447-  38 2.27  39 2.27  47 2.32  46 2.39  20 2.62  21 2.62  15 2.70  13 2.70
                             5 2.77   6 2.77   7 2.83   8 2.83
  32  0.125  0.250  0.878-  24 2.27  28 2.27  16 2.32  22 2.39  10 2.43  14 2.43   1 2.49  13 2.67
                             9 2.67
  33  0.125  0.750  0.878-  24 2.27  28 2.27  17 2.32  23 2.39  10 2.43  14 2.43   2 2.49  13 2.67
                             9 2.67
  34  0.375  0.250  0.622-  25 2.27  29 2.27  18 2.32  16 2.39  11 2.43  48 2.43   3 2.49  14 2.67
                            10 2.67
  35  0.375  0.750  0.622-  25 2.27  29 2.27  19 2.32  17 2.39  11 2.43  48 2.43   4 2.49  14 2.67
                            10 2.67
  36  0.625  0.250  0.878-  26 2.27  30 2.27  20 2.32  18 2.39  12 2.43  15 2.43   5 2.49  11 2.67
                            48 2.67
  37  0.625  0.750  0.878-  26 2.27  30 2.27  21 2.32  19 2.39  12 2.43  15 2.43   6 2.49  11 2.67
                            48 2.67
  38  0.875  0.250  0.622-  27 2.27  31 2.27  22 2.32  20 2.39   9 2.43  13 2.43   7 2.49  12 2.67
                            15 2.67
  39  0.875  0.750  0.622-  27 2.27  31 2.27  23 2.32  21 2.39   9 2.43  13 2.43   8 2.49  12 2.67
                            15 2.67
  40  0.125  0.000  0.378-  16 2.27  17 2.27  24 2.32  25 2.39   7 2.43   8 2.43   9 2.49   2 2.67
                             1 2.67
  41  0.375  0.000  0.122-  18 2.27  19 2.27  25 2.32  26 2.39   1 2.43   2 2.43  10 2.49   4 2.67
                             3 2.67
  42  0.625  0.000  0.378-  20 2.27  21 2.27  26 2.32  27 2.39   3 2.43   4 2.43  11 2.49   6 2.67
                             5 2.67
  43  0.875  0.000  0.122-  22 2.27  23 2.27  27 2.32  24 2.39   5 2.43   6 2.43  12 2.49   8 2.67
                             7 2.67
  44  0.125  0.500  0.378-  16 2.27  17 2.27  28 2.32  29 2.39   7 2.43   8 2.43  13 2.49   2 2.67
                             1 2.67
  45  0.375  0.500  0.122-  18 2.27  19 2.27  29 2.32  30 2.39   1 2.43   2 2.43  14 2.49   4 2.67
                             3 2.67
  46  0.625  0.500  0.378-  20 2.27  21 2.27  30 2.32  31 2.39   3 2.43   4 2.43  48 2.49   6 2.67
                             5 2.67
  47  0.875  0.500  0.122-  22 2.27  23 2.27  31 2.32  28 2.39   5 2.43   6 2.43  15 2.49   8 2.67
                             7 2.67
  48  0.508  0.500  0.678-  34 2.43  35 2.43  46 2.49  37 2.67  36 2.67  30 2.70  29 2.70  19 2.77
                            18 2.77  21 2.83  20 2.83   4 3.07   3 3.07  14 3.11  15 3.11
 
  LATTYP: Found a simple orthorhombic cell.
 ALAT       =     6.9037490210
 B/A-ratio  =     1.0555008508
 C/A-ratio  =     1.7085169161
  
  Lattice vectors:
  
 A1 = (   0.0000000000,   0.0000000000,  -6.9037490210)
 A2 = (   0.0000000000,  -7.2869129653,   0.0000000000)
 A3 = ( -11.7951719865,   0.0000000000,   0.0000000000)


Analysis of symmetry for initial positions (statically):
=====================================================================
 Subroutine PRICEL returns:
 Original cell was already a primitive cell.
 

 Routine SETGRP: Setting up the symmetry group for a 
 simple orthorhombic supercell.


 Subroutine GETGRP returns: Found  2 space group operations
 (whereof  2 operations were pure point group operations)
 out of a pool of  8 trial point group operations.


The static configuration has the point symmetry C_1h.


Analysis of symmetry for dynamics (positions and initial velocities):
=====================================================================
 Subroutine PRICEL returns:
 Original cell was already a primitive cell.
 

 Routine SETGRP: Setting up the symmetry group for a 
 simple orthorhombic supercell.


 Subroutine GETGRP returns: Found  2 space group operations
 (whereof  2 operations were pure point group operations)
 out of a pool of  8 trial point group operations.


The dynamic configuration has the point symmetry C_1h.


Analysis of structural, dynamic, and magnetic symmetry:
=====================================================================
 Subroutine PRICEL returns:
 Original cell was already a primitive cell.
 

 Routine SETGRP: Setting up the symmetry group for a 
 simple orthorhombic supercell.


 Subroutine GETGRP returns: Found  2 space group operations
 (whereof  2 operations were pure point group operations)
 out of a pool of  8 trial point group operations.


The magnetic configuration has the point symmetry C_1h.


 Subroutine INISYM returns: Found  2 space group operations
 (whereof  2 operations are pure point group operations),
 and found     1 'primitive' translations


----------------------------------------------------------------------------------------

                                     Primitive cell                                     

  volume of cell :     593.3799

  direct lattice vectors                    reciprocal lattice vectors
    11.795171987  0.000000000  0.000000000     0.084780451  0.000000000  0.000000000
     0.000000000  7.286912965  0.000000000     0.000000000  0.137232324  0.000000000
     0.000000000  0.000000000  6.903749021     0.000000000  0.000000000  0.144848835

  length of vectors
    11.795171987  7.286912965  6.903749021     0.084780451  0.137232324  0.144848835

  position of ions in fractional coordinates (direct lattice)
     0.241899997  0.250000000  0.178299993
     0.241899997  0.750000000  0.178299993
     0.491899997  0.250000000  0.321700007
     0.491899997  0.750000000  0.321700007
     0.741900027  0.250000000  0.178299993
     0.741900027  0.750000000  0.178299993
     0.991900027  0.250000000  0.321700007
     0.991900027  0.750000000  0.321700007
     0.008100000  0.000000000  0.678300023
     0.258100003  0.000000000  0.821699977
     0.508099973  0.000000000  0.678300023
     0.758099973  0.000000000  0.821699977
     0.008100000  0.500000000  0.678300023
     0.258100003  0.500000000  0.821699977
     0.758099973  0.500000000  0.821699977
     0.176699996  0.250000000  0.553300023
     0.176699996  0.750000000  0.553300023
     0.426699996  0.250000000  0.946699977
     0.426699996  0.750000000  0.946699977
     0.676699996  0.250000000  0.553300023
     0.676699996  0.750000000  0.553300023
     0.926699996  0.250000000  0.946699977
     0.926699996  0.750000000  0.946699977
     0.073299997  0.000000000  0.053300001
     0.323300004  0.000000000  0.446700007
     0.573300004  0.000000000  0.053300001
     0.823300004  0.000000000  0.446700007
     0.073299997  0.500000000  0.053300001
     0.323300004  0.500000000  0.446700007
     0.573300004  0.500000000  0.053300001
     0.823300004  0.500000000  0.446700007
     0.125249997  0.250000000  0.878300011
     0.125249997  0.750000000  0.878300011
     0.375250012  0.250000000  0.621699989
     0.375250012  0.750000000  0.621699989
     0.625249982  0.250000000  0.878300011
     0.625249982  0.750000000  0.878300011
     0.875249982  0.250000000  0.621699989
     0.875249982  0.750000000  0.621699989
     0.124750003  0.000000000  0.378300011
     0.374749988  0.000000000  0.121699996
     0.624750018  0.000000000  0.378300011
     0.874750018  0.000000000  0.121699996
     0.124750003  0.500000000  0.378300011
     0.374749988  0.500000000  0.121699996
     0.624750018  0.500000000  0.378300011
     0.874750018  0.500000000  0.121699996
     0.508099973  0.500000000  0.678300023

  ion indices of the primitive-cell ions
   primitive index   ion index
                 1           1
                 2           2
                 3           3
                 4           4
                 5           5
                 6           6
                 7           7
                 8           8
                 9           9
                10          10
                11          11
                12          12
                13          13
                14          14
                15          15
                16          16
                17          17
                18          18
                19          19
                20          20
                21          21
                22          22
                23          23
                24          24
                25          25
                26          26
                27          27
                28          28
                29          29
                30          30
                31          31
                32          32
                33          33
                34          34
                35          35
                36          36
                37          37
                38          38
                39          39
                40          40
                41          41
                42          42
                43          43
                44          44
                45          45
                46          46
                47          47
                48          48

----------------------------------------------------------------------------------------

 
 
 KPOINTS: Auto                                    

Automatic generation of k-mesh.
Space group operators:
 irot       det(A)        alpha          n_x          n_y          n_z        tau_x        tau_y        tau_z
    1     1.000000     0.000000     1.000000     0.000000     0.000000     0.000000     0.000000     0.000000
    2    -1.000000   179.999999     0.000000     1.000000     0.000000     0.000000     0.000000     0.000000
 
 Subroutine IBZKPT returns following result:
 ===========================================
 
 Found     60 irreducible k-points:
 
 Following reciprocal coordinates:
            Coordinates               Weight
  0.000000  0.000000  0.000000      1.000000
  0.250000  0.000000  0.000000      2.000000
  0.500000  0.000000  0.000000      1.000000
  0.000000  0.142857  0.000000      2.000000
  0.250000  0.142857  0.000000      4.000000
  0.500000  0.142857  0.000000      2.000000
  0.000000  0.285714  0.000000      2.000000
  0.250000  0.285714  0.000000      4.000000
  0.500000  0.285714  0.000000      2.000000
  0.000000  0.428571  0.000000      2.000000
  0.250000  0.428571  0.000000      4.000000
  0.500000  0.428571  0.000000      2.000000
  0.000000  0.000000  0.142857      2.000000
  0.250000  0.000000  0.142857      2.000000
 -0.250000  0.000000  0.142857      2.000000
  0.500000  0.000000  0.142857      2.000000
  0.000000  0.142857  0.142857      4.000000
  0.250000  0.142857  0.142857      4.000000
 -0.250000 -0.142857  0.142857      4.000000
  0.500000  0.142857  0.142857      4.000000
  0.000000  0.285714  0.142857      4.000000
  0.250000  0.285714  0.142857      4.000000
 -0.250000 -0.285714  0.142857      4.000000
  0.500000  0.285714  0.142857      4.000000
  0.000000  0.428571  0.142857      4.000000
  0.250000  0.428571  0.142857      4.000000
 -0.250000 -0.428571  0.142857      4.000000
  0.500000  0.428571  0.142857      4.000000
  0.000000  0.000000  0.285714      2.000000
  0.250000  0.000000  0.285714      2.000000
 -0.250000  0.000000  0.285714      2.000000
  0.500000  0.000000  0.285714      2.000000
  0.000000  0.142857  0.285714      4.000000
  0.250000  0.142857  0.285714      4.000000
 -0.250000 -0.142857  0.285714      4.000000
  0.500000  0.142857  0.285714      4.000000
  0.000000  0.285714  0.285714      4.000000
  0.250000  0.285714  0.285714      4.000000
 -0.250000 -0.285714  0.285714      4.000000
  0.500000  0.285714  0.285714      4.000000
  0.000000  0.428571  0.285714      4.000000
  0.250000  0.428571  0.285714      4.000000
 -0.250000 -0.428571  0.285714      4.000000
  0.500000  0.428571  0.285714      4.000000
  0.000000  0.000000  0.428571      2.000000
  0.250000  0.000000  0.428571      2.000000
 -0.250000  0.000000  0.428571      2.000000
  0.500000  0.000000  0.428571      2.000000
  0.000000  0.142857  0.428571      4.000000
  0.250000  0.142857  0.428571      4.000000
 -0.250000 -0.142857  0.428571      4.000000
  0.500000  0.142857  0.428571      4.000000
  0.000000  0.285714  0.428571      4.000000
  0.250000  0.285714  0.428571      4.000000
 -0.250000 -0.285714  0.428571      4.000000
  0.500000  0.285714  0.428571      4.000000
  0.000000  0.428571  0.428571      4.000000
  0.250000  0.428571  0.428571      4.000000
 -0.250000 -0.428571  0.428571      4.000000
  0.500000  0.428571  0.428571      4.000000
 
 Following cartesian coordinates:
            Coordinates               Weight
  0.000000  0.000000  0.000000      1.000000
  0.020771  0.000000  0.000000      2.000000
  0.041542  0.000000  0.000000      1.000000
  0.000000  0.019213  0.000000      2.000000
  0.020771  0.019213  0.000000      4.000000
  0.041542  0.019213  0.000000      2.000000
  0.000000  0.038425  0.000000      2.000000
  0.020771  0.038425  0.000000      4.000000
  0.041542  0.038425  0.000000      2.000000
  0.000000  0.057638  0.000000      2.000000
  0.020771  0.057638  0.000000      4.000000
  0.041542  0.057638  0.000000      2.000000
  0.000000  0.000000  0.020279      2.000000
  0.020771  0.000000  0.020279      2.000000
 -0.020771  0.000000  0.020279      2.000000
  0.041542  0.000000  0.020279      2.000000
  0.000000  0.019213  0.020279      4.000000
  0.020771  0.019213  0.020279      4.000000
 -0.020771 -0.019213  0.020279      4.000000
  0.041542  0.019213  0.020279      4.000000
  0.000000  0.038425  0.020279      4.000000
  0.020771  0.038425  0.020279      4.000000
 -0.020771 -0.038425  0.020279      4.000000
  0.041542  0.038425  0.020279      4.000000
  0.000000  0.057638  0.020279      4.000000
  0.020771  0.057638  0.020279      4.000000
 -0.020771 -0.057638  0.020279      4.000000
  0.041542  0.057638  0.020279      4.000000
  0.000000  0.000000  0.040558      2.000000
  0.020771  0.000000  0.040558      2.000000
 -0.020771  0.000000  0.040558      2.000000
  0.041542  0.000000  0.040558      2.000000
  0.000000  0.019213  0.040558      4.000000
  0.020771  0.019213  0.040558      4.000000
 -0.020771 -0.019213  0.040558      4.000000
  0.041542  0.019213  0.040558      4.000000
  0.000000  0.038425  0.040558      4.000000
  0.020771  0.038425  0.040558      4.000000
 -0.020771 -0.038425  0.040558      4.000000
  0.041542  0.038425  0.040558      4.000000
  0.000000  0.057638  0.040558      4.000000
  0.020771  0.057638  0.040558      4.000000
 -0.020771 -0.057638  0.040558      4.000000
  0.041542  0.057638  0.040558      4.000000
  0.000000  0.000000  0.060837      2.000000
  0.020771  0.000000  0.060837      2.000000
 -0.020771  0.000000  0.060837      2.000000
  0.041542  0.000000  0.060837      2.000000
  0.000000  0.019213  0.060837      4.000000
  0.020771  0.019213  0.060837      4.000000
 -0.020771 -0.019213  0.060837      4.000000
  0.041542  0.019213  0.060837      4.000000
  0.000000  0.038425  0.060837      4.000000
  0.020771  0.038425  0.060837      4.000000
 -0.020771 -0.038425  0.060837      4.000000
  0.041542  0.038425  0.060837      4.000000
  0.000000  0.057638  0.060837      4.000000
  0.020771  0.057638  0.060837      4.000000
 -0.020771 -0.057638  0.060837      4.000000
  0.041542  0.057638  0.060837      4.000000
 


--------------------------------------------------------------------------------------------------------




 Dimension of arrays:
   k-points           NKPTS =     60   k-points in BZ     NKDIM =     60   number of bands    NBANDS=    360
   number of dos      NEDOS =    301   number of ions     NIONS =     48
   non local maximal  LDIM  =      6   non local SUM 2l+1 LMDIM =     18
   total plane-waves  NPLWV = 201600
   max r-space proj   IRMAX =      1   max aug-charges    IRDMAX=  18663
   dimension x,y,z NGX =    84 NGY =   50 NGZ =   48
   dimension x,y,z NGXF=   168 NGYF=  100 NGZF=   96
   support grid    NGXF=   168 NGYF=  100 NGZF=   96
   ions per type =              15  16  16   1
   NGX,Y,Z   is equivalent  to a cutoff of  11.84, 11.41, 11.56 a.u.
   NGXF,Y,Z  is equivalent  to a cutoff of  23.68, 22.81, 23.12 a.u.

 SYSTEM =  MnFeNiGe_mag_orth-scf                   
 POSCAR =  MnNiGe_orth                             

 Startparameter for this run:
   NWRITE =      2    write-flag & timer
   PREC   = accura    normal or accurate (medium, high low for compatibility)
   ISTART =      0    job   : 0-new  1-cont  2-samecut
   ICHARG =      2    charge: 1-file 2-atom 10-const
   ISPIN  =      2    spin polarized calculation?
   LNONCOLLINEAR =      F non collinear calculations
   LSORBIT =      F    spin-orbit coupling
   INIWAV =      1    electr: 0-lowe 1-rand  2-diag
   LASPH  =      F    aspherical Exc in radial PAW
   METAGGA=      F    non-selfconsistent MetaGGA calc.

 Electronic Relaxation 1
   ENCUT  =  450.0 eV  33.07 Ry    5.75 a.u.  20.40 12.60 11.94*2*pi/ulx,y,z
   ENINI  =  450.0     initial cutoff
   ENAUG  =  544.6 eV  augmentation charge cutoff
   NELM   =     60;   NELMIN=  5; NELMDL= -5     # of ELM steps 
   EDIFF  = 0.1E-05   stopping-criterion for ELM
   LREAL  =      F    real-space projection
   NLSPLINE    = F    spline interpolate recip. space projectors
   LCOMPAT=      F    compatible to vasp.4.4
   GGA_COMPAT  = T    GGA compatible to vasp.4.4-vasp.4.6
   LMAXPAW     = -100 max onsite density
   LMAXMIX     =    2 max onsite mixed and CHGCAR
   VOSKOWN=      0    Vosko Wilk Nusair interpolation
   ROPT   =    0.00000   0.00000   0.00000   0.00000
 Ionic relaxation
   EDIFFG = 0.1E-04   stopping-criterion for IOM
   NSW    =      0    number of steps for IOM
   NBLOCK =      1;   KBLOCK =      1    inner block; outer block 
   IBRION =     -1    ionic relax: 0-MD 1-quasi-New 2-CG
   NFREE  =      0    steps in history (QN), initial steepest desc. (CG)
   ISIF   =      6    stress and relaxation
   IWAVPR =     10    prediction:  0-non 1-charg 2-wave 3-comb
   ISYM   =      2    0-nonsym 1-usesym 2-fastsym
   LCORR  =      T    Harris-Foulkes like correction to forces

   POTIM  = 0.5000    time-step for ionic-motion
   TEIN   =    0.0    initial temperature
   TEBEG  =    0.0;   TEEND  =   0.0 temperature during run
   SMASS  =  -3.00    Nose mass-parameter (am)
   estimated Nose-frequenzy (Omega)   =  0.10E-29 period in steps = 0.13E+47 mass=  -0.318E-26a.u.
   SCALEE = 1.0000    scale energy and forces
   NPACO  =    256;   APACO  = 16.0  distance and # of slots for P.C.
   PSTRESS=    0.0 pullay stress

  Mass of Ions in am
   POMASS =  54.94 58.69 72.61 55.85
  Ionic Valenz
   ZVAL   =   7.00 10.00  4.00  8.00
  Atomic Wigner-Seitz radii
   RWIGS  =  -1.00 -1.00 -1.00 -1.00
  virtual crystal weights 
   VCA    =   1.00  1.00  1.00  1.00
   NELECT =     337.0000    total number of electrons
   NUPDOWN=      -1.0000    fix difference up-down

 DOS related values:
   EMIN   =  10.00;   EMAX   =-10.00  energy-range for DOS
   EFERMI =   0.00
   ISMEAR =     1;   SIGMA  =   0.20  broadening in eV -4-tet -1-fermi 0-gaus

 Electronic relaxation 2 (details)
   IALGO  =     38    algorithm
   LDIAG  =      T    sub-space diagonalisation (order eigenvalues)
   LSUBROT=      F    optimize rotation matrix (better conditioning)
   TURBO    =      0    0=normal 1=particle mesh
   IRESTART =      0    0=no restart 2=restart with 2 vectors
   NREBOOT  =      0    no. of reboots
   NMIN     =      0    reboot dimension
   EREF     =   0.00    reference energy to select bands
   IMIX   =      4    mixing-type and parameters
     AMIX     =   0.40;   BMIX     =  1.00
     AMIX_MAG =   1.60;   BMIX_MAG =  1.00
     AMIN     =   0.10
     WC   =   100.;   INIMIX=   1;  MIXPRE=   1;  MAXMIX= -45

 Intra band minimization:
   WEIMIN = 0.0000     energy-eigenvalue tresh-hold
   EBREAK =  0.69E-09  absolut break condition
   DEPER  =   0.30     relativ break condition  

   TIME   =   0.40     timestep for ELM

  volume/ion in A,a.u.               =      12.36        83.42
  Fermi-wavevector in a.u.,A,eV,Ry     =   1.355732  2.561962 25.007634  1.838009
  Thomas-Fermi vector in A             =   2.482795
 
 Write flags
   LWAVE        =      F    write WAVECAR
   LDOWNSAMPLE  =      F    k-point downsampling of WAVECAR
   LCHARG       =      T    write CHGCAR
   LVTOT        =      F    write LOCPOT, total local potential
   LVHAR        =      F    write LOCPOT, Hartree potential only
   LELF         =      F    write electronic localiz. function (ELF)
   LORBIT       =     11    0 simple, 1 ext, 2 COOP (PROOUT), +10 PAW based schemes


 Dipole corrections
   LMONO  =      F    monopole corrections only (constant potential shift)
   LDIPOL =      F    correct potential (dipole corrections)
   IDIPOL =      0    1-x, 2-y, 3-z, 4-all directions 
   EPSILON=  1.0000000 bulk dielectric constant

 Exchange correlation treatment:
   GGA     =    --    GGA type
   LEXCH   =     8    internal setting for exchange type
   VOSKOWN=      0    Vosko Wilk Nusair interpolation
   LHFCALC =     F    Hartree Fock is set to
   LHFONE  =     F    Hartree Fock one center treatment
   AEXX    =    0.0000 exact exchange contribution

 Linear response parameters
   LEPSILON=     F    determine dielectric tensor
   LRPA    =     F    only Hartree local field effects (RPA)
   LNABLA  =     F    use nabla operator in PAW spheres
   LVEL    =     F    velocity operator in full k-point grid
   LINTERFAST=   F  fast interpolation
   KINTER  =     0    interpolate to denser k-point grid
   CSHIFT  =0.1000    complex shift for real part using Kramers Kronig
   OMEGAMAX=  -1.0    maximum frequency
   DEG_THRESHOLD= 0.2000000E-02 threshold for treating states as degnerate
   RTIME   =   -0.100 relaxation time in fs
  (WPLASMAI=    0.000 imaginary part of plasma frequency in eV, 0.658/RTIME)
   DFIELD  = 0.0000000 0.0000000 0.0000000 field for delta impulse in time
 
 Orbital magnetization related:
   ORBITALMAG=     F  switch on orbital magnetization
   LCHIMAG   =     F  perturbation theory with respect to B field
   DQ        =  0.001000  dq finite difference perturbation B field
   LLRAUG    =     F  two centre corrections for induced B field



--------------------------------------------------------------------------------------------------------


 Static calculation
 charge density and potential will be updated during run
 spin polarized calculation
 Variant of blocked Davidson
 Davidson routine will perform the subspace rotation
 perform sub-space diagonalisation
    after iterative eigenvector-optimisation
 modified Broyden-mixing scheme, WC =      100.0
 initial mixing is a Kerker type mixing with AMIX =  0.4000 and BMIX =      1.0000
 Hartree-type preconditioning will be used
 using additional bands          191
 reciprocal scheme for non local part
 use partial core corrections
 calculate Harris-corrections to forces 
   (improved forces if not selfconsistent)
 use gradient corrections 
 use of overlap-Matrix (Vanderbilt PP)
 Methfessel and Paxton  Order N= 1 SIGMA  =   0.20


--------------------------------------------------------------------------------------------------------


  energy-cutoff  :      450.00
  volume of cell :      593.38
      direct lattice vectors                 reciprocal lattice vectors
    11.795171987  0.000000000  0.000000000     0.084780451  0.000000000  0.000000000
     0.000000000  7.286912965  0.000000000     0.000000000  0.137232324  0.000000000
     0.000000000  0.000000000  6.903749021     0.000000000  0.000000000  0.144848835

  length of vectors
    11.795171987  7.286912965  6.903749021     0.084780451  0.137232324  0.144848835


 
 k-points in units of 2pi/SCALE and weight: Auto                                    
   0.00000000  0.00000000  0.00000000       0.005
   0.02077121  0.00000000  0.00000000       0.010
   0.04154242  0.00000000  0.00000000       0.005
   0.00000000  0.01921253  0.00000000       0.010
   0.02077121  0.01921253  0.00000000       0.020
   0.04154242  0.01921253  0.00000000       0.010
   0.00000000  0.03842505  0.00000000       0.010
   0.02077121  0.03842505  0.00000000       0.020
   0.04154242  0.03842505  0.00000000       0.010
   0.00000000  0.05763758  0.00000000       0.010
   0.02077121  0.05763758  0.00000000       0.020
   0.04154242  0.05763758  0.00000000       0.010
   0.00000000  0.00000000  0.02027884       0.010
   0.02077121  0.00000000  0.02027884       0.010
  -0.02077121  0.00000000  0.02027884       0.010
   0.04154242  0.00000000  0.02027884       0.010
   0.00000000  0.01921253  0.02027884       0.020
   0.02077121  0.01921253  0.02027884       0.020
  -0.02077121 -0.01921253  0.02027884       0.020
   0.04154242  0.01921253  0.02027884       0.020
   0.00000000  0.03842505  0.02027884       0.020
   0.02077121  0.03842505  0.02027884       0.020
  -0.02077121 -0.03842505  0.02027884       0.020
   0.04154242  0.03842505  0.02027884       0.020
   0.00000000  0.05763758  0.02027884       0.020
   0.02077121  0.05763758  0.02027884       0.020
  -0.02077121 -0.05763758  0.02027884       0.020
   0.04154242  0.05763758  0.02027884       0.020
   0.00000000  0.00000000  0.04055767       0.010
   0.02077121  0.00000000  0.04055767       0.010
  -0.02077121  0.00000000  0.04055767       0.010
   0.04154242  0.00000000  0.04055767       0.010
   0.00000000  0.01921253  0.04055767       0.020
   0.02077121  0.01921253  0.04055767       0.020
  -0.02077121 -0.01921253  0.04055767       0.020
   0.04154242  0.01921253  0.04055767       0.020
   0.00000000  0.03842505  0.04055767       0.020
   0.02077121  0.03842505  0.04055767       0.020
  -0.02077121 -0.03842505  0.04055767       0.020
   0.04154242  0.03842505  0.04055767       0.020
   0.00000000  0.05763758  0.04055767       0.020
   0.02077121  0.05763758  0.04055767       0.020
  -0.02077121 -0.05763758  0.04055767       0.020
   0.04154242  0.05763758  0.04055767       0.020
   0.00000000  0.00000000  0.06083651       0.010
   0.02077121  0.00000000  0.06083651       0.010
  -0.02077121  0.00000000  0.06083651       0.010
   0.04154242  0.00000000  0.06083651       0.010
   0.00000000  0.01921253  0.06083651       0.020
   0.02077121  0.01921253  0.06083651       0.020
  -0.02077121 -0.01921253  0.06083651       0.020
   0.04154242  0.01921253  0.06083651       0.020
   0.00000000  0.03842505  0.06083651       0.020
   0.02077121  0.03842505  0.06083651       0.020
  -0.02077121 -0.03842505  0.06083651       0.020
   0.04154242  0.03842505  0.06083651       0.020
   0.00000000  0.05763758  0.06083651       0.020
   0.02077121  0.05763758  0.06083651       0.020
  -0.02077121 -0.05763758  0.06083651       0.020
   0.04154242  0.05763758  0.06083651       0.020
 
 k-points in reciprocal lattice and weights: Auto                                    
   0.00000000  0.00000000  0.00000000       0.005
   0.25000000  0.00000000  0.00000000       0.010
   0.50000000  0.00000000  0.00000000       0.005
   0.00000000  0.14285714  0.00000000       0.010
   0.25000000  0.14285714  0.00000000       0.020
   0.50000000  0.14285714  0.00000000       0.010
   0.00000000  0.28571429  0.00000000       0.010
   0.25000000  0.28571429  0.00000000       0.020
   0.50000000  0.28571429  0.00000000       0.010
   0.00000000  0.42857143  0.00000000       0.010
   0.25000000  0.42857143  0.00000000       0.020
   0.50000000  0.42857143  0.00000000       0.010
   0.00000000  0.00000000  0.14285714       0.010
   0.25000000  0.00000000  0.14285714       0.010
  -0.25000000  0.00000000  0.14285714       0.010
   0.50000000  0.00000000  0.14285714       0.010
   0.00000000  0.14285714  0.14285714       0.020
   0.25000000  0.14285714  0.14285714       0.020
  -0.25000000 -0.14285714  0.14285714       0.020
   0.50000000  0.14285714  0.14285714       0.020
   0.00000000  0.28571429  0.14285714       0.020
   0.25000000  0.28571429  0.14285714       0.020
  -0.25000000 -0.28571429  0.14285714       0.020
   0.50000000  0.28571429  0.14285714       0.020
   0.00000000  0.42857143  0.14285714       0.020
   0.25000000  0.42857143  0.14285714       0.020
  -0.25000000 -0.42857143  0.14285714       0.020
   0.50000000  0.42857143  0.14285714       0.020
   0.00000000  0.00000000  0.28571429       0.010
   0.25000000  0.00000000  0.28571429       0.010
  -0.25000000  0.00000000  0.28571429       0.010
   0.50000000  0.00000000  0.28571429       0.010
   0.00000000  0.14285714  0.28571429       0.020
   0.25000000  0.14285714  0.28571429       0.020
  -0.25000000 -0.14285714  0.28571429       0.020
   0.50000000  0.14285714  0.28571429       0.020
   0.00000000  0.28571429  0.28571429       0.020
   0.25000000  0.28571429  0.28571429       0.020
  -0.25000000 -0.28571429  0.28571429       0.020
   0.50000000  0.28571429  0.28571429       0.020
   0.00000000  0.42857143  0.28571429       0.020
   0.25000000  0.42857143  0.28571429       0.020
  -0.25000000 -0.42857143  0.28571429       0.020
   0.50000000  0.42857143  0.28571429       0.020
   0.00000000  0.00000000  0.42857143       0.010
   0.25000000  0.00000000  0.42857143       0.010
  -0.25000000  0.00000000  0.42857143       0.010
   0.50000000  0.00000000  0.42857143       0.010
   0.00000000  0.14285714  0.42857143       0.020
   0.25000000  0.14285714  0.42857143       0.020
  -0.25000000 -0.14285714  0.42857143       0.020
   0.50000000  0.14285714  0.42857143       0.020
   0.00000000  0.28571429  0.42857143       0.020
   0.25000000  0.28571429  0.42857143       0.020
  -0.25000000 -0.28571429  0.42857143       0.020
   0.50000000  0.28571429  0.42857143       0.020
   0.00000000  0.42857143  0.42857143       0.020
   0.25000000  0.42857143  0.42857143       0.020
  -0.25000000 -0.42857143  0.42857143       0.020
   0.50000000  0.42857143  0.42857143       0.020
 
 position of ions in fractional coordinates (direct lattice) 
   0.24190000  0.25000000  0.17829999
   0.24190000  0.75000000  0.17829999
   0.49190000  0.25000000  0.32170001
   0.49190000  0.75000000  0.32170001
   0.74190003  0.25000000  0.17829999
   0.74190003  0.75000000  0.17829999
   0.99190003  0.25000000  0.32170001
   0.99190003  0.75000000  0.32170001
   0.00810000  0.00000000  0.67830002
   0.25810000  0.00000000  0.82169998
   0.50809997  0.00000000  0.67830002
   0.75809997  0.00000000  0.82169998
   0.00810000  0.50000000  0.67830002
   0.25810000  0.50000000  0.82169998
   0.75809997  0.50000000  0.82169998
   0.17670000  0.25000000  0.55330002
   0.17670000  0.75000000  0.55330002
   0.42670000  0.25000000  0.94669998
   0.42670000  0.75000000  0.94669998
   0.67670000  0.25000000  0.55330002
   0.67670000  0.75000000  0.55330002
   0.92670000  0.25000000  0.94669998
   0.92670000  0.75000000  0.94669998
   0.07330000  0.00000000  0.05330000
   0.32330000  0.00000000  0.44670001
   0.57330000  0.00000000  0.05330000
   0.82330000  0.00000000  0.44670001
   0.07330000  0.50000000  0.05330000
   0.32330000  0.50000000  0.44670001
   0.57330000  0.50000000  0.05330000
   0.82330000  0.50000000  0.44670001
   0.12525000  0.25000000  0.87830001
   0.12525000  0.75000000  0.87830001
   0.37525001  0.25000000  0.62169999
   0.37525001  0.75000000  0.62169999
   0.62524998  0.25000000  0.87830001
   0.62524998  0.75000000  0.87830001
   0.87524998  0.25000000  0.62169999
   0.87524998  0.75000000  0.62169999
   0.12475000  0.00000000  0.37830001
   0.37474999  0.00000000  0.12170000
   0.62475002  0.00000000  0.37830001
   0.87475002  0.00000000  0.12170000
   0.12475000  0.50000000  0.37830001
   0.37474999  0.50000000  0.12170000
   0.62475002  0.50000000  0.37830001
   0.87475002  0.50000000  0.12170000
   0.50809997  0.50000000  0.67830002
 
 position of ions in cartesian coordinates  (Angst):
   2.85325207  1.82172824  1.23093840
   2.85325207  5.46518472  1.23093840
   5.80204506  1.82172824  2.22093611
   5.80204506  5.46518472  2.22093611
   8.75083842  1.82172824  1.23093840
   8.75083842  5.46518472  1.23093840
  11.69963141  1.82172824  2.22093611
  11.69963141  5.46518472  2.22093611
   0.09554089  0.00000000  4.68281312
   3.04433393  0.00000000  5.67281041
   5.99312657  0.00000000  4.68281312
   8.94191956  0.00000000  5.67281041
   0.09554089  3.64345648  4.68281312
   3.04433393  3.64345648  5.67281041
   8.94191956  3.64345648  5.67281041
   2.08420684  1.82172824  3.81984449
   2.08420684  5.46518472  3.81984449
   5.03299984  1.82172824  6.53577904
   5.03299984  5.46518472  6.53577904
   7.98179284  1.82172824  3.81984449
   7.98179284  5.46518472  3.81984449
  10.93058583  1.82172824  6.53577904
  10.93058583  5.46518472  6.53577904
   0.86458607  0.00000000  0.36796983
   3.81337915  0.00000000  3.08390474
   6.76217215  0.00000000  0.36796983
   9.71096514  0.00000000  3.08390474
   0.86458607  3.64345648  0.36796983
   3.81337915  3.64345648  3.08390474
   6.76217215  3.64345648  0.36796983
   9.71096514  3.64345648  3.08390474
   1.47734526  1.82172824  6.06356284
   1.47734526  5.46518472  6.06356284
   4.42613843  1.82172824  4.29206069
   4.42613843  5.46518472  4.29206069
   7.37493107  1.82172824  6.06356284
   7.37493107  5.46518472  6.06356284
  10.32372407  1.82172824  4.29206069
  10.32372407  5.46518472  4.29206069
   1.47144774  0.00000000  2.61168833
   4.42024056  0.00000000  0.84018623
   7.36903391  0.00000000  2.61168833
  10.31782691  0.00000000  0.84018623
   1.47144774  3.64345648  2.61168833
   4.42024056  3.64345648  0.84018623
   7.36903391  3.64345648  2.61168833
  10.31782691  3.64345648  0.84018623
   5.99312657  3.64345648  4.68281312
 


--------------------------------------------------------------------------------------------------------


 k-point   1 :   0.0000 0.0000 0.0000  plane waves:   12891
 k-point   2 :   0.2500 0.0000 0.0000  plane waves:   12843
 k-point   3 :   0.5000 0.0000 0.0000  plane waves:   12836
 k-point   4 :   0.0000 0.1429 0.0000  plane waves:   12863
 k-point   5 :   0.2500 0.1429 0.0000  plane waves:   12852
 k-point   6 :   0.5000 0.1429 0.0000  plane waves:   12860
 k-point   7 :   0.0000 0.2857 0.0000  plane waves:   12859
 k-point   8 :   0.2500 0.2857 0.0000  plane waves:   12840
 k-point   9 :   0.5000 0.2857 0.0000  plane waves:   12836
 k-point  10 :   0.0000 0.4286 0.0000  plane waves:   12850
 k-point  11 :   0.2500 0.4286 0.0000  plane waves:   12831
 k-point  12 :   0.5000 0.4286 0.0000  plane waves:   12806
 k-point  13 :   0.0000 0.0000 0.1429  plane waves:   12900
 k-point  14 :   0.2500 0.0000 0.1429  plane waves:   12872
 k-point  15 :  -0.2500 0.0000 0.1429  plane waves:   12872
 k-point  16 :   0.5000 0.0000 0.1429  plane waves:   12864
 k-point  17 :   0.0000 0.1429 0.1429  plane waves:   12875
 k-point  18 :   0.2500 0.1429 0.1429  plane waves:   12865
 k-point  19 :  -0.2500-0.1429 0.1429  plane waves:   12865
 k-point  20 :   0.5000 0.1429 0.1429  plane waves:   12876
 k-point  21 :   0.0000 0.2857 0.1429  plane waves:   12855
 k-point  22 :   0.2500 0.2857 0.1429  plane waves:   12854
 k-point  23 :  -0.2500-0.2857 0.1429  plane waves:   12854
 k-point  24 :   0.5000 0.2857 0.1429  plane waves:   12848
 k-point  25 :   0.0000 0.4286 0.1429  plane waves:   12850
 k-point  26 :   0.2500 0.4286 0.1429  plane waves:   12834
 k-point  27 :  -0.2500-0.4286 0.1429  plane waves:   12834
 k-point  28 :   0.5000 0.4286 0.1429  plane waves:   12814
 k-point  29 :   0.0000 0.0000 0.2857  plane waves:   12868
 k-point  30 :   0.2500 0.0000 0.2857  plane waves:   12886
 k-point  31 :  -0.2500 0.0000 0.2857  plane waves:   12886
 k-point  32 :   0.5000 0.0000 0.2857  plane waves:   12898
 k-point  33 :   0.0000 0.1429 0.2857  plane waves:   12873
 k-point  34 :   0.2500 0.1429 0.2857  plane waves:   12878
 k-point  35 :  -0.2500-0.1429 0.2857  plane waves:   12878
 k-point  36 :   0.5000 0.1429 0.2857  plane waves:   12878
 k-point  37 :   0.0000 0.2857 0.2857  plane waves:   12864
 k-point  38 :   0.2500 0.2857 0.2857  plane waves:   12863
 k-point  39 :  -0.2500-0.2857 0.2857  plane waves:   12863
 k-point  40 :   0.5000 0.2857 0.2857  plane waves:   12884
 k-point  41 :   0.0000 0.4286 0.2857  plane waves:   12858
 k-point  42 :   0.2500 0.4286 0.2857  plane waves:   12860
 k-point  43 :  -0.2500-0.4286 0.2857  plane waves:   12860
 k-point  44 :   0.5000 0.4286 0.2857  plane waves:   12846
 k-point  45 :   0.0000 0.0000 0.4286  plane waves:   12842
 k-point  46 :   0.2500 0.0000 0.4286  plane waves:   12880
 k-point  47 :  -0.2500 0.0000 0.4286  plane waves:   12880
 k-point  48 :   0.5000 0.0000 0.4286  plane waves:   12888
 k-point  49 :   0.0000 0.1429 0.4286  plane waves:   12873
 k-point  50 :   0.2500 0.1429 0.4286  plane waves:   12887
 k-point  51 :  -0.2500-0.1429 0.4286  plane waves:   12887
 k-point  52 :   0.5000 0.1429 0.4286  plane waves:   12856
 k-point  53 :   0.0000 0.2857 0.4286  plane waves:   12872
 k-point  54 :   0.2500 0.2857 0.4286  plane waves:   12864
 k-point  55 :  -0.2500-0.2857 0.4286  plane waves:   12864
 k-point  56 :   0.5000 0.2857 0.4286  plane waves:   12862
 k-point  57 :   0.0000 0.4286 0.4286  plane waves:   12884
 k-point  58 :   0.2500 0.4286 0.4286  plane waves:   12876
 k-point  59 :  -0.2500-0.4286 0.4286  plane waves:   12876
 k-point  60 :   0.5000 0.4286 0.4286  plane waves:   12874

 maximum and minimum number of plane-waves per node :      2207     2094

 maximum number of plane-waves:     12900
 maximum index in each direction: 
   IXMAX=   20   IYMAX=   13   IZMAX=   11
   IXMIN=  -20   IYMIN=  -13   IZMIN=  -12


 parallel 3D FFT for wavefunctions:
    minimum data exchange during FFTs selected (reduces bandwidth)
 parallel 3D FFT for charge:
    minimum data exchange during FFTs selected (reduces bandwidth)


 total amount of memory used by VASP MPI-rank0   517584. kBytes
=======================================================================

   base      :      30000. kBytes
   nonl-proj :      76591. kBytes
   fftplans  :       3318. kBytes
   grid      :       9296. kBytes
   one-center:        248. kBytes
   wavefun   :     398131. kBytes
 
     INWAV:  cpu time    0.0010: real time    0.0063
 Broyden mixing: mesh for mixing (old mesh)
   NGX = 41   NGY = 25   NGZ = 23
  (NGX  =168   NGY  =100   NGZ  = 96)
  gives a total of  23575 points

 initial charge density was supplied:
 charge density of overlapping atoms calculated
 number of electron     337.0000000 magnetization     160.0000000
 keeping initial charge density in first step


--------------------------------------------------------------------------------------------------------


 Maximum index for augmentation-charges          786 (set IRDMAX)


--------------------------------------------------------------------------------------------------------


 First call to EWALD:  gamma=   0.211
 Maximum number of real-space cells 2x 3x 3
 Maximum number of reciprocal cells 4x 2x 2

    FEWALD:  cpu time    0.0020: real time    0.0216


--------------------------------------- Iteration      1(   1)  ---------------------------------------


    POTLOK:  cpu time    0.1390: real time    0.4391
    SETDIJ:  cpu time    0.0310: real time    0.1493
     EDDAV:  cpu time  266.9324: real time  269.1310
       DOS:  cpu time    0.0380: real time    0.0931
    --------------------------------------------
      LOOP:  cpu time  267.1404: real time  269.8125

 eigenvalue-minimisations  : 86400
 total energy-change (2. order) : 0.2859878E+04  (-0.1083490E+05)
 number of electron     337.0000000 magnetization     160.0000000
 augmentation part      337.0000000 magnetization     160.0000000

 Free energy of the ion-electron system (eV)
  ---------------------------------------------------
  alpha Z        PSCENC =      1618.56731161
  Ewald energy   TEWEN  =    -22446.31598819
  -Hartree energ DENC   =     -6845.22088542
  -exchange      EXHF   =         0.00000000
  -V(xc)+E(xc)   XCENC  =       321.21795807
  PAW double counting   =     23377.83946347   -23998.34197029
  entropy T*S    EENTRO =        -0.00717834
  eigenvalues    EBANDS =      5063.91241989
  atomic energy  EATOM  =     25768.22672671
  Solvation  Ediel_sol  =         0.00000000
  ---------------------------------------------------
  free energy    TOTEN  =      2859.87785752 eV

  energy without entropy =     2859.88503585  energy(sigma->0) =     2859.88025029


--------------------------------------------------------------------------------------------------------




--------------------------------------- Iteration      1(   2)  ---------------------------------------


     EDDAV:  cpu time  266.5955: real time  267.8891
       DOS:  cpu time    0.0430: real time    0.0431
    --------------------------------------------
      LOOP:  cpu time  266.6385: real time  267.9322

 eigenvalue-minimisations  : 86400
 total energy-change (2. order) :-0.2668939E+04  (-0.2373966E+04)
 number of electron     337.0000000 magnetization     160.0000000
 augmentation part      337.0000000 magnetization     160.0000000

 Free energy of the ion-electron system (eV)
  ---------------------------------------------------
  alpha Z        PSCENC =      1618.56731161
  Ewald energy   TEWEN  =    -22446.31598819
  -Hartree energ DENC   =     -6845.22088542
  -exchange      EXHF   =         0.00000000
  -V(xc)+E(xc)   XCENC  =       321.21795807
  PAW double counting   =     23377.83946347   -23998.34197029
  entropy T*S    EENTRO =        -0.00307690
  eigenvalues    EBANDS =      2394.96927791
  atomic energy  EATOM  =     25768.22672671
  Solvation  Ediel_sol  =         0.00000000
  ---------------------------------------------------
  free energy    TOTEN  =       190.93881697 eV

  energy without entropy =      190.94189387  energy(sigma->0) =      190.93984260


--------------------------------------------------------------------------------------------------------




--------------------------------------- Iteration      1(   3)  ---------------------------------------


     EDDAV:  cpu time  266.7504: real time  267.9917
       DOS:  cpu time    0.0500: real time    0.0501
    --------------------------------------------
      LOOP:  cpu time  266.8004: real time  268.0418

 eigenvalue-minimisations  : 86472
 total energy-change (2. order) :-0.4546086E+03  (-0.3760193E+03)
 number of electron     337.0000000 magnetization     160.0000000
 augmentation part      337.0000000 magnetization     160.0000000

 Free energy of the ion-electron system (eV)
  ---------------------------------------------------
  alpha Z        PSCENC =      1618.56731161
  Ewald energy   TEWEN  =    -22446.31598819
  -Hartree energ DENC   =     -6845.22088542
  -exchange      EXHF   =         0.00000000
  -V(xc)+E(xc)   XCENC  =       321.21795807
  PAW double counting   =     23377.83946347   -23998.34197029
  entropy T*S    EENTRO =        -0.02163113
  eigenvalues    EBANDS =      1940.37920199
  atomic energy  EATOM  =     25768.22672671
  Solvation  Ediel_sol  =         0.00000000
  ---------------------------------------------------
  free energy    TOTEN  =      -263.66981318 eV

  energy without entropy =     -263.64818205  energy(sigma->0) =     -263.66260280


--------------------------------------------------------------------------------------------------------




--------------------------------------- Iteration      1(   4)  ---------------------------------------


     EDDAV:  cpu time  312.6075: real time  314.0630
       DOS:  cpu time    0.0530: real time    0.0528
    --------------------------------------------
      LOOP:  cpu time  312.6605: real time  314.1158

 eigenvalue-minimisations  :106056
 total energy-change (2. order) :-0.3258953E+02  (-0.3129722E+02)
 number of electron     337.0000000 magnetization     160.0000000
 augmentation part      337.0000000 magnetization     160.0000000

 Free energy of the ion-electron system (eV)
  ---------------------------------------------------
  alpha Z        PSCENC =      1618.56731161
  Ewald energy   TEWEN  =    -22446.31598819
  -Hartree energ DENC   =     -6845.22088542
  -exchange      EXHF   =         0.00000000
  -V(xc)+E(xc)   XCENC  =       321.21795807
  PAW double counting   =     23377.83946347   -23998.34197029
  entropy T*S    EENTRO =        -0.02115577
  eigenvalues    EBANDS =      1907.78919597
  atomic energy  EATOM  =     25768.22672671
  Solvation  Ediel_sol  =         0.00000000
  ---------------------------------------------------
  free energy    TOTEN  =      -296.25934384 eV

  energy without entropy =     -296.23818807  energy(sigma->0) =     -296.25229192


--------------------------------------------------------------------------------------------------------




--------------------------------------- Iteration      1(   5)  ---------------------------------------


     EDDAV:  cpu time  308.1022: real time  309.4966
       DOS:  cpu time    0.0540: real time    0.0541
    CHARGE:  cpu time    3.9624: real time    4.0567
    MIXING:  cpu time    0.0070: real time    0.0468
    --------------------------------------------
      LOOP:  cpu time  312.1256: real time  313.6542

 eigenvalue-minimisations  :104280
 total energy-change (2. order) :-0.8306978E+00  (-0.8289589E+00)
 number of electron     337.0000088 magnetization     130.0056086
 augmentation part      119.2087003 magnetization     109.9690078

 Broyden mixing:
  rms(total) = 0.10643E+02    rms(broyden)= 0.10643E+02
  rms(prec ) = 0.11386E+02
  weight for this iteration     100.00

 Free energy of the ion-electron system (eV)
  ---------------------------------------------------
  alpha Z        PSCENC =      1618.56731161
  Ewald energy   TEWEN  =    -22446.31598819
  -Hartree energ DENC   =     -6845.22088542
  -exchange      EXHF   =         0.00000000
  -V(xc)+E(xc)   XCENC  =       321.21795807
  PAW double counting   =     23377.83946347   -23998.34197029
  entropy T*S    EENTRO =        -0.02089255
  eigenvalues    EBANDS =      1906.95823494
  atomic energy  EATOM  =     25768.22672671
  Solvation  Ediel_sol  =         0.00000000
  ---------------------------------------------------
  free energy    TOTEN  =      -297.09004165 eV

  energy without entropy =     -297.06914910  energy(sigma->0) =     -297.08307747


--------------------------------------------------------------------------------------------------------




--------------------------------------- Iteration      1(   6)  ---------------------------------------


    POTLOK:  cpu time    0.1260: real time    0.1327
    SETDIJ:  cpu time    0.0250: real time    0.0257
     EDDAV:  cpu time  320.5013: real time  321.6030
       DOS:  cpu time    0.0540: real time    0.0533
    CHARGE:  cpu time    3.7004: real time    3.7071
    MIXING:  cpu time    0.0050: real time    0.1059
    --------------------------------------------
      LOOP:  cpu time  324.4117: real time  325.6276

 eigenvalue-minimisations  :109416
 total energy-change (2. order) :-0.6649836E+02  (-0.2140215E+02)
 number of electron     337.0000088 magnetization     117.9294024
 augmentation part      158.2998938 magnetization      94.4446411

 Broyden mixing:
  rms(total) = 0.10908E+02    rms(broyden)= 0.10907E+02
  rms(prec ) = 0.12385E+02
  weight for this iteration     100.00

 eigenvalues of (default mixing * dielectric matrix)
  average eigenvalue GAMMA=   0.6731
  0.6731

 Free energy of the ion-electron system (eV)
  ---------------------------------------------------
  alpha Z        PSCENC =      1618.56731161
  Ewald energy   TEWEN  =    -22446.31598819
  -Hartree energ DENC   =     -5940.53425063
  -exchange      EXHF   =         0.00000000
  -V(xc)+E(xc)   XCENC  =       238.32324491
  PAW double counting   =     26105.48884454   -26586.63390120
  entropy T*S    EENTRO =        -0.00579242
  eigenvalues    EBANDS =       879.29540559
  atomic energy  EATOM  =     25768.22672671
  Solvation  Ediel_sol  =         0.00000000
  ---------------------------------------------------
  free energy    TOTEN  =      -363.58839909 eV

  energy without entropy =     -363.58260666  energy(sigma->0) =     -363.58646828


--------------------------------------------------------------------------------------------------------




--------------------------------------- Iteration      1(   7)  ---------------------------------------


    POTLOK:  cpu time    0.1270: real time    0.1330
    SETDIJ:  cpu time    0.0250: real time    0.0257
     EDDAV:  cpu time  311.7786: real time  313.2044
       DOS:  cpu time    0.0510: real time    0.0514
    CHARGE:  cpu time    3.6524: real time    3.6590
    MIXING:  cpu time    0.0040: real time    0.0603
    --------------------------------------------
      LOOP:  cpu time  315.6390: real time  317.1338

 eigenvalue-minimisations  :105896
 total energy-change (2. order) : 0.4894722E+02  (-0.1919849E+02)
 number of electron     337.0000114 magnetization     102.9913450
 augmentation part      148.3506387 magnetization      85.2276868

 Broyden mixing:
  rms(total) = 0.81068E+01    rms(broyden)= 0.81066E+01
  rms(prec ) = 0.10554E+02
  weight for this iteration     100.00

 eigenvalues of (default mixing * dielectric matrix)
  average eigenvalue GAMMA=   0.6188
  0.9489  0.2887

 Free energy of the ion-electron system (eV)
  ---------------------------------------------------
  alpha Z        PSCENC =      1618.56731161
  Ewald energy   TEWEN  =    -22446.31598819
  -Hartree energ DENC   =     -6341.87448653
  -exchange      EXHF   =         0.00000000
  -V(xc)+E(xc)   XCENC  =       254.01480230
  PAW double counting   =     27914.32446908   -28539.45960392
  entropy T*S    EENTRO =        -0.02002494
  eigenvalues    EBANDS =      1457.89561550
  atomic energy  EATOM  =     25768.22672671
  Solvation  Ediel_sol  =         0.00000000
  ---------------------------------------------------
  free energy    TOTEN  =      -314.64117837 eV

  energy without entropy =     -314.62115343  energy(sigma->0) =     -314.63450339


--------------------------------------------------------------------------------------------------------




[...]
   43       -0.017  -0.108   0.003  -0.122
   44       -0.016  -0.108   0.003  -0.122
   45       -0.017  -0.108   0.003  -0.121
   46       -0.014  -0.100   0.001  -0.113
   47       -0.017  -0.109   0.003  -0.122
   48        0.009  -0.003   2.106   2.112
--------------------------------------------------
tot         -0.285  -2.185  47.194  44.724
 
    CHARGE:  cpu time    3.6614: real time    3.6688
    FORLOC:  cpu time    0.0190: real time    0.0455
    FORNL :  cpu time   95.2835: real time   95.6009
    STRESS:  cpu time  165.0199: real time  165.6316
    FORCOR:  cpu time    0.1410: real time    0.1921
    FORHAR:  cpu time    0.0300: real time    0.0493
    MIXING:  cpu time    0.0060: real time    0.0068
    OFIELD:  cpu time    0.0010: real time    0.0049

  FORCE on cell =-STRESS in cart. coord.  units (eV):
  Direction    XX          YY          ZZ          XY          YZ          ZX
  --------------------------------------------------------------------------------------
  Alpha Z  1618.56731  1618.56731  1618.56731
  Ewald   -7720.54530 -7130.66083 -7595.21222     0.00000    -0.00000     0.12894
  Hartree  2060.27984  2334.27092  1959.58488    -0.00000    -0.00000    -1.13578
  E(xc)   -1664.39446 -1666.94131 -1664.36753     0.00000     0.00000     0.14760
  Local    -300.06202 -1115.43909  -290.89054     0.00000     0.00000     2.19422
  n-local  -224.60727  -201.36056  -205.25487     0.01097    -0.81766     0.59420
  augment  3337.82876  3319.12647  3308.76235     0.00000    -0.00000    -0.89735
  Kinetic  2923.54825  2889.06277  2901.74882     0.12616     0.46687    -1.15507
  Fock        0.00000     0.00000     0.00000     0.00000     0.00000     0.00000
  -------------------------------------------------------------------------------------
  Total      30.61510    46.62568    32.93820     0.00000     0.00000    -0.12324
  in kB      82.66344   125.89339    88.93599     0.00000     0.00000    -0.33276
  external pressure =       99.16 kB  Pullay stress =        0.00 kB


 VOLUME and BASIS-vectors are now :
 -----------------------------------------------------------------------------
  energy-cutoff  :      450.00
  volume of cell :      593.38
      direct lattice vectors                 reciprocal lattice vectors
    11.795171987  0.000000000  0.000000000     0.084780451  0.000000000  0.000000000
     0.000000000  7.286912965  0.000000000     0.000000000  0.137232324  0.000000000
     0.000000000  0.000000000  6.903749021     0.000000000  0.000000000  0.144848835

  length of vectors
    11.795171987  7.286912965  6.903749021     0.084780451  0.137232324  0.144848835


 FORCES acting on ions
    electron-ion (+dipol)            ewald-force                    non-local-force                 convergence-correction
 -----------------------------------------------------------------------------------------------
   0.107E+02 0.107E+01 0.372E+02   -.109E+02 -.105E+01 -.370E+02   -.579E+00 -.804E-02 0.106E+00   -.451E-02 0.191E-02 -.145E-03
   0.107E+02 -.107E+01 0.372E+02   -.109E+02 0.105E+01 -.370E+02   -.579E+00 0.804E-02 0.106E+00   -.451E-02 -.191E-02 -.145E-03
   0.708E+01 0.508E+01 -.321E+02   -.728E+01 -.518E+01 0.318E+02   -.592E+00 0.796E-01 0.410E-02   -.145E-01 -.624E-02 -.703E-02
   0.708E+01 -.508E+01 -.321E+02   -.728E+01 0.518E+01 0.318E+02   -.592E+00 -.796E-01 0.410E-02   -.145E-01 0.624E-02 -.703E-02
   0.142E+01 0.130E+01 0.372E+02   -.162E+01 -.133E+01 -.370E+02   -.609E+00 0.242E-01 0.106E+00   0.279E-02 0.441E-04 -.546E-02
   0.142E+01 -.130E+01 0.372E+02   -.162E+01 0.133E+01 -.370E+02   -.609E+00 -.242E-01 0.106E+00   0.279E-02 -.441E-04 -.546E-02
   0.581E+01 0.289E+00 -.371E+02   -.603E+01 -.289E+00 0.368E+02   -.597E+00 -.481E-02 -.958E-01   0.151E-01 0.294E-03 -.427E-03
   0.581E+01 -.289E+00 -.371E+02   -.603E+01 0.289E+00 0.368E+02   -.597E+00 0.481E-02 -.958E-01   0.151E-01 -.294E-03 -.427E-03
   -.621E+01 -.171E-12 0.372E+02   0.641E+01 0.196E-13 -.370E+02   0.594E+00 0.000E+00 0.102E+00   0.105E-01 0.101E-13 0.131E-02
   -.139E+01 0.649E-13 -.379E+02   0.156E+01 0.319E-13 0.377E+02   0.629E+00 0.000E+00 -.121E+00   -.501E-02 -.319E-14 -.631E-03
   -.619E+01 0.292E-12 0.372E+02   0.641E+01 -.157E-13 -.370E+02   0.640E+00 0.000E+00 0.959E-01   -.961E-02 0.174E-13 0.454E-02
   -.110E+02 -.915E-13 -.379E+02   0.113E+02 0.809E-14 0.377E+02   0.590E+00 0.000E+00 -.115E+00   0.615E-02 -.611E-14 0.477E-03
   -.621E+01 -.284E-12 0.372E+02   0.641E+01 0.203E-13 -.370E+02   0.607E+00 0.000E+00 0.105E+00   0.112E-01 0.432E-13 0.412E-02
   0.417E+01 0.833E-12 -.396E+02   -.388E+01 0.452E-13 0.394E+02   0.688E+00 0.000E+00 -.141E+00   -.113E-01 0.653E-14 0.646E-02
   -.165E+02 0.111E-11 -.396E+02   0.167E+02 0.258E-13 0.394E+02   0.556E+00 0.000E+00 -.130E+00   0.945E-02 0.122E-13 0.341E-02
   0.817E+02 0.155E+01 -.410E+02   -.814E+02 -.154E+01 0.420E+02   -.477E-02 -.105E-01 -.339E+00   -.125E-03 -.788E-02 -.216E-02
   0.817E+02 -.155E+01 -.410E+02   -.814E+02 0.154E+01 0.420E+02   -.477E-02 0.105E-01 -.339E+00   -.125E-03 0.788E-02 -.216E-02
   0.826E+02 0.997E+01 0.323E+02   -.823E+02 -.997E+01 -.333E+02   -.592E-01 0.290E-01 0.327E+00   -.201E-01 -.124E-01 0.848E-02
   0.826E+02 -.997E+01 0.323E+02   -.823E+02 0.997E+01 -.333E+02   -.592E-01 -.290E-01 0.327E+00   -.201E-01 0.124E-01 0.848E-02
   0.612E+02 0.890E+01 -.374E+02   -.608E+02 -.893E+01 0.384E+02   -.131E+00 0.455E-01 -.334E+00   0.457E-02 -.108E-01 0.577E-02
   0.612E+02 -.890E+01 -.374E+02   -.608E+02 0.893E+01 0.384E+02   -.131E+00 -.455E-01 -.334E+00   0.457E-02 0.108E-01 0.577E-02
   0.721E+02 0.602E+00 0.413E+02   -.718E+02 -.592E+00 -.422E+02   -.289E-01 -.613E-02 0.338E+00   0.192E-01 -.408E-02 -.565E-02
   0.721E+02 -.602E+00 0.413E+02   -.718E+02 0.592E+00 -.422E+02   -.289E-01 0.613E-02 0.338E+00   0.192E-01 0.408E-02 -.565E-02
   -.731E+02 0.131E-12 -.420E+02   0.728E+02 -.477E-13 0.429E+02   0.522E-01 0.000E+00 -.343E+00   0.116E-01 0.640E-13 -.787E-02
   -.684E+02 0.739E-13 0.437E+02   0.680E+02 -.412E-13 -.447E+02   0.960E-01 0.000E+00 0.364E+00   -.162E-01 0.548E-13 -.139E-02
   -.778E+02 0.148E-12 -.440E+02   0.776E+02 0.140E-13 0.449E+02   0.823E-01 0.000E+00 -.350E+00   -.139E-01 0.663E-13 -.954E-02
   -.803E+02 0.250E-12 0.425E+02   0.801E+02 0.156E-13 -.435E+02   -.128E-01 0.000E+00 0.358E+00   0.209E-01 0.521E-13 0.116E-01
   -.726E+02 -.216E-12 -.421E+02   0.723E+02 -.470E-13 0.431E+02   0.480E-01 0.000E+00 -.330E+00   0.159E-01 0.109E-12 0.418E-02
   -.579E+02 -.312E-11 0.507E+02   0.576E+02 -.546E-13 -.517E+02   0.140E+00 0.000E+00 0.386E+00   -.312E-01 0.789E-13 -.135E-01
   -.819E+02 0.118E-11 -.541E+02   0.816E+02 -.128E-13 0.549E+02   0.204E-01 0.000E+00 -.282E+00   -.921E-02 0.851E-13 0.803E-02
   -.833E+02 -.621E-11 0.435E+02   0.830E+02 0.160E-14 -.445E+02   0.703E-01 0.000E+00 0.315E+00   0.150E-01 0.721E-13 -.195E-03
   -.329E+02 0.335E+00 0.151E+02   0.333E+02 -.341E+00 -.148E+02   -.746E+00 -.273E-03 -.786E+00   0.215E-02 0.107E-03 0.845E-03
   -.329E+02 -.335E+00 0.151E+02   0.333E+02 0.341E+00 -.148E+02   -.746E+00 0.273E-03 -.786E+00   0.215E-02 -.107E-03 0.845E-03
   -.280E+02 0.607E+01 -.139E+02   0.283E+02 -.608E+01 0.137E+02   -.542E+00 0.224E+00 0.808E+00   -.115E-01 -.803E-02 -.382E-03
   -.280E+02 -.607E+01 -.139E+02   0.283E+02 0.608E+01 0.137E+02   -.542E+00 -.224E+00 0.808E+00   -.115E-01 0.803E-02 -.382E-03
   -.393E+02 0.443E+01 0.120E+02   0.397E+02 -.445E+01 -.117E+02   -.852E+00 0.109E+00 -.874E+00   -.106E-02 -.636E-02 0.311E-02
   -.393E+02 -.443E+01 0.120E+02   0.397E+02 0.445E+01 -.117E+02   -.852E+00 -.109E+00 -.874E+00   -.106E-02 0.636E-02 0.311E-02
   -.368E+02 0.461E+00 -.152E+02   0.372E+02 -.451E+00 0.150E+02   -.758E+00 0.435E-03 0.785E+00   0.855E-02 -.428E-02 0.357E-02
   -.368E+02 -.461E+00 -.152E+02   0.372E+02 0.451E+00 0.150E+02   -.758E+00 -.435E-03 0.785E+00   0.855E-02 0.428E-02 0.357E-02
   0.360E+02 0.137E-13 0.155E+02   -.364E+02 -.903E-14 -.152E+02   0.755E+00 0.000E+00 -.781E+00   0.339E-02 -.135E-13 0.401E-02
   0.366E+02 0.423E-13 -.157E+02   -.369E+02 -.352E-13 0.154E+02   0.749E+00 0.000E+00 0.776E+00   -.762E-02 -.526E-14 -.628E-03
   0.327E+02 0.170E-12 0.164E+02   -.330E+02 -.445E-13 -.161E+02   0.752E+00 0.000E+00 -.787E+00   -.536E-02 -.795E-14 0.803E-03
   0.332E+02 0.365E-13 -.154E+02   -.336E+02 -.177E-13 0.151E+02   0.746E+00 0.000E+00 0.783E+00   0.694E-02 -.646E-14 -.521E-02
   0.365E+02 -.389E-13 0.157E+02   -.369E+02 -.877E-14 -.154E+02   0.759E+00 0.000E+00 -.784E+00   0.520E-02 0.149E-15 -.528E-02
   0.380E+02 -.908E-12 -.167E+02   -.384E+02 -.331E-13 0.164E+02   0.743E+00 0.000E+00 0.794E+00   -.101E-01 0.144E-14 0.673E-03
   0.291E+02 0.164E-11 0.215E+02   -.293E+02 -.464E-13 -.211E+02   0.559E+00 0.000E+00 -.555E+00   0.141E-02 -.293E-14 -.681E-02
   0.328E+02 0.796E-12 -.155E+02   -.331E+02 -.173E-13 0.152E+02   0.749E+00 0.000E+00 0.788E+00   0.995E-02 0.314E-14 -.188E-02
   -.708E+01 -.277E-11 0.426E+02   0.732E+01 -.277E-13 -.423E+02   0.460E+00 0.000E+00 -.184E+00   -.116E-01 0.327E-13 0.580E-02
 -----------------------------------------------------------------------------------------------
   -.698E-01 0.250E-10 -.597E-01   -.394E-12 -.106E-12 0.107E-12   0.718E-01 0.000E+00 0.562E-01   -.243E-02 0.105E-11 0.348E-02
 
 
 POSITION                                       TOTAL-FORCE (eV/Angst)
 -----------------------------------------------------------------------------------
      2.85325      1.82173      1.23094        -0.821305      0.009717      0.326266
      2.85325      5.46518      1.23094        -0.821305     -0.009717      0.326266
      5.80205      1.82173      2.22094        -0.807272     -0.027039     -0.297167
      5.80205      5.46518      2.22094        -0.807272      0.027039     -0.297167
      8.75084      1.82173      1.23094        -0.809011     -0.004005      0.319725
      8.75084      5.46518      1.23094        -0.809011      0.004005      0.319725
     11.69963      1.82173      2.22094        -0.802155     -0.004049     -0.332657
     11.69963      5.46518      2.22094        -0.802155      0.004049     -0.332657
      0.09554      0.00000      4.68281         0.803884      0.000000      0.333147
      3.04433      0.00000      5.67281         0.794697      0.000000     -0.319759
      5.99313      0.00000      4.68281         0.844960      0.000000      0.296887
      8.94192      0.00000      5.67281         0.827926      0.000000     -0.316971
      0.09554      3.64346      4.68281         0.816542      0.000000      0.337947
      3.04433      3.64346      5.67281         0.967069      0.000000     -0.372396
      8.94192      3.64346      5.67281         0.771628      0.000000     -0.355492
      2.08421      1.82173      3.81984         0.277762     -0.002207      0.612741
      2.08421      5.46518      3.81984         0.277762      0.002207      0.612741
      5.03300      1.82173      6.53578         0.237034      0.017519     -0.632909
      5.03300      5.46518      6.53578         0.237034     -0.017519     -0.632909
      7.98179      1.82173      3.81984         0.212142     -0.003705      0.590953
      7.98179      5.46518      3.81984         0.212142      0.003705      0.590953
     10.93059      1.82173      6.53578         0.270216     -0.000905     -0.613087
     10.93059      5.46518      6.53578         0.270216      0.000905     -0.613087
      0.86459      0.00000      0.36797        -0.262107      0.000000      0.614641
      3.81338      0.00000      3.08390        -0.274991      0.000000     -0.625087
      6.76217      0.00000      0.36797        -0.210927      0.000000      0.610340
      9.71097      0.00000      3.08390        -0.273173      0.000000     -0.606062
      0.86459      3.64346      0.36797        -0.267829      0.000000      0.614379
      3.81338      3.64346      3.08390        -0.199709      0.000000     -0.581739
      6.76217      3.64346      0.36797        -0.313753      0.000000      0.565519
      9.71097      3.64346      3.08390        -0.278979      0.000000     -0.616407
      1.47735      1.82173      6.06356        -0.388075     -0.006320     -0.514919
      1.47735      5.46518      6.06356        -0.388075      0.006320     -0.514919
      4.42614      1.82173      4.29206        -0.237384      0.199512      0.585787
      4.42614      5.46518      4.29206        -0.237384     -0.199512      0.585787
      7.37493      1.82173      6.06356        -0.488279      0.079964     -0.571627
      7.37493      5.46518      6.06356        -0.488279     -0.079964     -0.571627
     10.32372      1.82173      4.29206        -0.397134      0.006369      0.526957
     10.32372      5.46518      4.29206        -0.397134     -0.006369      0.526957
      1.47145      0.00000      2.61169         0.374353      0.000000     -0.524826
      4.42024      0.00000      0.84019         0.430851      0.000000      0.488946
      7.36903      0.00000      2.61169         0.385670      0.000000     -0.521342
     10.31783      0.00000      0.84019         0.394917      0.000000      0.518966
      1.47145      3.64346      2.61169         0.390789      0.000000     -0.517220
      4.42024      3.64346      0.84019         0.388031      0.000000      0.518249
      7.36903      3.64346      2.61169         0.318085      0.000000     -0.172035
     10.31783      3.64346      0.84019         0.385981      0.000000      0.521504
      5.99313      3.64346      4.68281         0.693008      0.000000      0.108684
 -----------------------------------------------------------------------------------
    total drift:                               -0.000385      0.000000     -0.000000


--------------------------------------------------------------------------------------------------------



  FREE ENERGIE OF THE ION-ELECTRON SYSTEM (eV)
  ---------------------------------------------------
  free  energy   TOTEN  =      -312.09235581 eV

  energy  without entropy=     -312.11519881  energy(sigma->0) =     -312.09997014
 


--------------------------------------------------------------------------------------------------------


    POTLOK:  cpu time    0.1560: real time    0.2112


--------------------------------------------------------------------------------------------------------


     LOOP+:  cpu time11445.5730: real time11501.2142
    4ORBIT:  cpu time    0.0000: real time    0.0000
 


 total charge     
 
# of ion       s       p       d       tot
------------------------------------------
    1        0.273   0.327   5.111   5.711
    2        0.273   0.327   5.111   5.711
    3        0.273   0.326   5.110   5.710
    4        0.273   0.326   5.110   5.710
    5        0.273   0.327   5.112   5.712
    6        0.273   0.327   5.112   5.712
    7        0.273   0.327   5.111   5.712
    8        0.273   0.327   5.111   5.712
    9        0.273   0.327   5.110   5.711
   10        0.273   0.327   5.111   5.712
   11        0.274   0.327   5.111   5.712
   12        0.273   0.327   5.111   5.711
   13        0.273   0.327   5.111   5.711
   14        0.273   0.326   5.109   5.708
   15        0.273   0.326   5.111   5.710
   16        0.478   0.595   8.470   9.543
   17        0.478   0.595   8.470   9.543
   18        0.477   0.591   8.471   9.539
   19        0.477   0.591   8.471   9.539
   20        0.477   0.592   8.469   9.539
   21        0.477   0.592   8.469   9.539
   22        0.478   0.595   8.470   9.543
   23        0.478   0.595   8.470   9.543
   24        0.478   0.595   8.470   9.543
   25        0.478   0.593   8.472   9.543
   26        0.478   0.596   8.470   9.543
   27        0.478   0.594   8.471   9.543
   28        0.478   0.595   8.470   9.543
   29        0.477   0.592   8.470   9.539
   30        0.477   0.591   8.469   9.538
   31        0.478   0.596   8.469   9.543
   32        1.111   1.410   0.155   2.676
   33        1.111   1.410   0.155   2.676
   34        1.109   1.398   0.156   2.663
   35        1.109   1.398   0.156   2.663
   36        1.110   1.402   0.156   2.669
   37        1.110   1.402   0.156   2.669
   38        1.110   1.410   0.155   2.676
   39        1.110   1.410   0.155   2.676
   40        1.110   1.410   0.155   2.676
   41        1.111   1.409   0.156   2.676
   42        1.110   1.409   0.156   2.675
   43        1.110   1.410   0.155   2.676
   44        1.111   1.409   0.156   2.676
   45        1.111   1.411   0.155   2.676
   46        1.110   1.399   0.156   2.664
   47        1.110   1.410   0.156   2.676
   48        0.346   0.423   6.316   7.085
--------------------------------------------------
tot         29.853  37.330 220.991 288.175
 


 magnetization (x)
 
# of ion       s       p       d       tot
------------------------------------------
    1        0.017   0.010   2.829   2.856
    2        0.017   0.010   2.829   2.856
    3        0.017   0.012   2.834   2.862
    4        0.017   0.012   2.834   2.862
    5        0.017   0.010   2.822   2.849
    6        0.017   0.010   2.822   2.849
    7        0.017   0.010   2.825   2.852
    8        0.017   0.010   2.825   2.852
    9        0.017   0.010   2.830   2.857
   10        0.017   0.010   2.826   2.853
   11        0.016   0.011   2.811   2.839
   12        0.017   0.010   2.828   2.855
   13        0.017   0.010   2.832   2.859
   14        0.017   0.011   2.830   2.859
   15        0.017   0.011   2.819   2.847
   16       -0.019  -0.042   0.172   0.112
   17       -0.019  -0.042   0.172   0.112
   18       -0.018  -0.040   0.153   0.096
   19       -0.018  -0.040   0.153   0.096
   20       -0.018  -0.040   0.168   0.110
   21       -0.018  -0.040   0.168   0.110
   22       -0.019  -0.042   0.171   0.110
   23       -0.019  -0.042   0.171   0.110
   24       -0.019  -0.041   0.167   0.107
   25       -0.018  -0.040   0.167   0.109
   26       -0.018  -0.043   0.165   0.104
   27       -0.018  -0.041   0.171   0.112
   28       -0.019  -0.042   0.168   0.108
   29       -0.018  -0.040   0.158   0.100
   30       -0.017  -0.039   0.159   0.102
   31       -0.019  -0.042   0.171   0.110
   32       -0.016  -0.108   0.003  -0.121
   33       -0.016  -0.108   0.003  -0.121
   34       -0.014  -0.099   0.001  -0.113
   35       -0.014  -0.099   0.001  -0.113
   36       -0.015  -0.101   0.002  -0.114
   37       -0.015  -0.101   0.002  -0.114
   38       -0.017  -0.108   0.003  -0.121
   39       -0.017  -0.108   0.003  -0.121
   40       -0.017  -0.108   0.003  -0.122
   41       -0.016  -0.108   0.003  -0.121
   42       -0.016  -0.107   0.003  -0.120
   43       -0.017  -0.108   0.003  -0.122
   44       -0.016  -0.108   0.003  -0.122
   45       -0.017  -0.108   0.003  -0.121
   46       -0.014  -0.100   0.001  -0.113
   47       -0.017  -0.109   0.003  -0.122
   48        0.009  -0.003   2.106   2.112
--------------------------------------------------
tot         -0.285  -2.185  47.194  44.724
 

 total amount of memory used by VASP MPI-rank0   517584. kBytes
=======================================================================

   base      :      30000. kBytes
   nonl-proj :      76591. kBytes
   fftplans  :       3318. kBytes
   grid      :       9296. kBytes
   one-center:        248. kBytes
   wavefun   :     398131. kBytes
 
  
  
 General timing and accounting informations for this job:
 ========================================================
  
                  Total CPU time used (sec):    11668.017
                            User time (sec):    11546.128
                          System time (sec):      121.888
                         Elapsed time (sec):    11731.162
  
                   Maximum memory used (kb):      750748.
                   Average memory used (kb):           0.
  
                          Minor page faults:        66276
                          Major page faults:          641
                 Voluntary context switches:         6960
