 vasp.6.1.1 19Jun20 (build Nov 30 2020 11:51:22) complex                        
  
 executed on             LinuxIFC date 2020.12.10  16:39:13
 running on   24 total cores
 distrk:  each k-point on   24 cores,    1 groups
 distr:  one band on NCORE=   6 cores,    4 groups


--------------------------------------------------------------------------------------------------------


 INCAR:
 POTCAR:    PAW_PBE Mn 06Sep2000                  
 POTCAR:    PAW_PBE Ni 02Aug2007                  
 POTCAR:    PAW_PBE Ge 05Jan2001                  
 POTCAR:    PAW_PBE Fe 06Sep2000                  
 POTCAR:    PAW_PBE Mn 06Sep2000                  
   SHA256 =  791c87526310ff945dc83749a51ee60ee299d345ff72743aeb14609b9ed68bfc Mn/POTCAR             
   COPYR  = (c) Copyright 06Sep2000 Georg Kresse                                                    
   COPYR  = This file is part of the software VASP. Any use, copying, and all other rights are regul
   COPYR  = If you do not have a valid VASP license, you may not use, copy or distribute this file. 
   VRHFIN =Mn: d6 s1                                                                                
   LEXCH  = PE                                                                                      
   EATOM  =   416.7541 eV,   30.6306 Ry                                                             
                                                                                                    
   TITEL  = PAW_PBE Mn 06Sep2000                                                                    
   LULTRA =        F    use ultrasoft PP ?                                                          
   IUNSCR =        1    unscreen: 0-lin 1-nonlin 2-no                                               
   RPACOR =    2.000    partial core radius                                                         
   POMASS =   54.938; ZVAL   =    7.000    mass and valenz                                          
   RCORE  =    2.300    outmost cutoff radius                                                       
   RWIGS  =    2.500; RWIGS  =    1.323    wigner-seitz radius (au A)                               
   ENMAX  =  269.864; ENMIN  =  202.398 eV                                                          
   RCLOC  =    1.725    cutoff for local pot                                                        
   LCOR   =        T    correct aug charges                                                         
   LPAW   =        T    paw PP                                                                      
   EAUG   =  500.711                                                                                
   DEXC   =    0.000                                                                                
   RMAX   =    2.343    core radius for proj-oper                                                   
   RAUG   =    1.300    factor for augmentation sphere                                              
   RDEP   =    2.338    radius for radial grids                                                     
   RDEPT  =    1.911    core radius for aug-charge                                                  
                                                                                                    
   Atomic configuration                                                                             
    9 entries                                                                                       
     n  l   j            E        occ.                                                              
     1  0  0.50     -6424.8288   2.0000                                                             
     2  0  0.50      -739.1154   2.0000                                                             
     2  1  1.50      -625.3949   6.0000                                                             
     3  0  0.50       -81.6100   2.0000                                                             
     3  1  1.50       -50.4667   6.0000                                                             
     3  2  2.50        -3.3745   6.0000                                                             
     4  0  0.50        -4.1331   1.0000                                                             
     4  1  0.50        -4.0817   0.0000                                                             
     4  3  2.50        -1.3606   0.0000                                                             
   Description                                                                                      
     l       E           TYP  RCUT    TYP  RCUT                                                     
     2     -3.3744664     23  2.300                                                                 
     2     -4.7350490     23  2.300                                                                 
     0     -4.1331408     23  2.300                                                                 
     0      7.6656614     23  2.300                                                                 
     1     -2.7211652     23  2.300                                                                 
     1     20.4087390     23  2.300                                                                 
  local pseudopotential read in
  partial core-charges read in
  partial kinetic energy density read in
  atomic valenz-charges read in
  non local Contribution for L=           2  read in
    real space projection operators read in
  non local Contribution for L=           2  read in
    real space projection operators read in
  non local Contribution for L=           0  read in
    real space projection operators read in
  non local Contribution for L=           0  read in
    real space projection operators read in
  non local Contribution for L=           1  read in
    real space projection operators read in
  non local Contribution for L=           1  read in
    real space projection operators read in
    PAW grid and wavefunctions read in
 
   number of l-projection  operators is LMAX  =           6
   number of lm-projection operators is LMMAX =          18
 
 POTCAR:    PAW_PBE Ni 02Aug2007                  
   SHA256 =  0534bc51ca8003dfef23f56753fef9fdd3e22eac8d719fccacb59f3e6b7a69c7 Ni/POTCAR             
   COPYR  = (c) Copyright 02Aug2007 Georg Kresse                                                    
   COPYR  = This file is part of the software VASP. Any use, copying, and all other rights are regul
   COPYR  = If you do not have a valid VASP license, you may not use, copy or distribute this file. 
   VRHFIN =Ni:                                                                                      
   LEXCH  = PE                                                                                      
   EATOM  =  1077.6739 eV,   79.2068 Ry                                                             
                                                                                                    
   TITEL  = PAW_PBE Ni 02Aug2007                                                                    
   LULTRA =        F    use ultrasoft PP ?                                                          
   IUNSCR =        1    unscreen: 0-lin 1-nonlin 2-no                                               
   RPACOR =    2.000    partial core radius                                                         
   POMASS =   58.690; ZVAL   =   10.000    mass and valenz                                          
   RCORE  =    2.300    outmost cutoff radius                                                       
   RWIGS  =    2.430; RWIGS  =    1.286    wigner-seitz radius (au A)                               
   ENMAX  =  269.532; ENMIN  =  202.149 eV                                                          
   RCLOC  =    1.201    cutoff for local pot                                                        
   LCOR   =        T    correct aug charges                                                         
   LPAW   =        T    paw PP                                                                      
   EAUG   =  544.565                                                                                
   DEXC   =    0.000                                                                                
   RMAX   =    2.357    core radius for proj-oper                                                   
   RAUG   =    1.300    factor for augmentation sphere                                              
   RDEP   =    2.390    radius for radial grids                                                     
   RDEPT  =    1.838    core radius for aug-charge                                                  
                                                                                                    
   Atomic configuration                                                                             
    9 entries                                                                                       
     n  l   j            E        occ.                                                              
     1  0  0.50     -8206.4253   2.0000                                                             
     2  0  0.50      -976.1748   2.0000                                                             
     2  1  1.50      -839.0571   6.0000                                                             
     3  0  0.50      -105.9991   2.0000                                                             
     3  1  1.50       -66.4603   6.0000                                                             
     3  2  2.50        -4.6458   9.0000                                                             
     4  0  0.50        -4.4926   1.0000                                                             
     4  1  1.50        -4.0817   0.0000                                                             
     4  3  2.50        -1.3606   0.0000                                                             
   Description                                                                                      
     l       E           TYP  RCUT    TYP  RCUT                                                     
     2     -4.6457903     23  2.300                                                                 
     2     -6.0063729     23  2.300                                                                 
     0     -4.4925590     23  2.300                                                                 
     0      5.0102601     23  2.300                                                                 
     1     -2.7211652     23  2.300                                                                 
     1     16.5183231     23  2.300                                                                 
  local pseudopotential read in
  partial core-charges read in
  partial kinetic energy density read in
  atomic valenz-charges read in
  non local Contribution for L=           2  read in
    real space projection operators read in
  non local Contribution for L=           2  read in
    real space projection operators read in
  non local Contribution for L=           0  read in
    real space projection operators read in
  non local Contribution for L=           0  read in
    real space projection operators read in
  non local Contribution for L=           1  read in
    real space projection operators read in
  non local Contribution for L=           1  read in
    real space projection operators read in
    PAW grid and wavefunctions read in
 
   number of l-projection  operators is LMAX  =           6
   number of lm-projection operators is LMMAX =          18
 
 POTCAR:    PAW_PBE Ge 05Jan2001                  
   SHA256 =  7ff11deedcda39f1950abeda971a84a1f98a719a97bc9679a0df455c008734f8 Ge/POTCAR             
   COPYR  = (c) Copyright 05Jan2001 Georg Kresse                                                    
   COPYR  = This file is part of the software VASP. Any use, copying, and all other rights are regul
   COPYR  = If you do not have a valid VASP license, you may not use, copy or distribute this file. 
   VRHFIN =Ge: s2p2                                                                                 
   LEXCH  = PE                                                                                      
   EATOM  =   104.9960 eV,    7.7170 Ry                                                             
                                                                                                    
   TITEL  = PAW_PBE Ge 05Jan2001                                                                    
   LULTRA =        F    use ultrasoft PP ?                                                          
   IUNSCR =        1    unscreen: 0-lin 1-nonlin 2-no                                               
   RPACOR =    2.170    partial core radius                                                         
   POMASS =   72.610; ZVAL   =    4.000    mass and valenz                                          
   RCORE  =    2.300    outmost cutoff radius                                                       
   RWIGS  =    2.300; RWIGS  =    1.217    wigner-seitz radius (au A)                               
   ENMAX  =  173.807; ENMIN  =  130.355 eV                                                          
   ICORE  =        3    local potential                                                             
   LCOR   =        T    correct aug charges                                                         
   LPAW   =        T    paw PP                                                                      
   EAUG   =  385.843                                                                                
   DEXC   =    0.000                                                                                
   RMAX   =    2.342    core radius for proj-oper                                                   
   RAUG   =    1.300    factor for augmentation sphere                                              
   RDEP   =    2.318    radius for radial grids                                                     
   RDEPT  =    2.103    core radius for aug-charge                                                  
                                                                                                    
   Atomic configuration                                                                             
   10 entries                                                                                       
     n  l   j            E        occ.                                                              
     1  0  0.50    -10959.8463   2.0000                                                             
     2  0  0.50     -1371.6056   2.0000                                                             
     2  1  1.50     -1198.4791   6.0000                                                             
     3  0  0.50      -168.4733   2.0000                                                             
     3  1  1.50      -115.6019   6.0000                                                             
     3  2  2.50       -29.3106  10.0000                                                             
     4  0  0.50       -11.7309   2.0000                                                             
     4  1  0.50        -3.8952   2.0000                                                             
     4  2  1.50        -4.0817   0.0000                                                             
     4  3  2.50        -4.0817   0.0000                                                             
   Description                                                                                      
     l       E           TYP  RCUT    TYP  RCUT                                                     
     0    -11.7309493     23  2.300                                                                 
     0     -7.4578696     23  2.300                                                                 
     1     -3.8952261     23  2.300                                                                 
     1      6.1178114     23  2.300                                                                 
     2     -4.0817478     23  2.300                                                                 
     3     -1.3605826      7  2.300                                                                 
  local pseudopotential read in
  partial core-charges read in
  partial kinetic energy density read in
  atomic valenz-charges read in
  non local Contribution for L=           0  read in
    real space projection operators read in
  non local Contribution for L=           0  read in
    real space projection operators read in
  non local Contribution for L=           1  read in
    real space projection operators read in
  non local Contribution for L=           1  read in
    real space projection operators read in
  non local Contribution for L=           2  read in
    real space projection operators read in
    PAW grid and wavefunctions read in
 
   number of l-projection  operators is LMAX  =           5
   number of lm-projection operators is LMMAX =          13
 
 POTCAR:    PAW_PBE Fe 06Sep2000                  
   SHA256 =  cd5a22d9368cc8b5cc476bea79732366149640da08ac9009b0e1b7fc627eea28 Fe/POTCAR             
   COPYR  = (c) Copyright 06Sep2000 Georg Kresse                                                    
   COPYR  = This file is part of the software VASP. Any use, copying, and all other rights are regul
   COPYR  = If you do not have a valid VASP license, you may not use, copy or distribute this file. 
   VRHFIN =Fe:  d7 s1                                                                               
   LEXCH  = PE                                                                                      
   EATOM  =   594.3153 eV,   43.6809 Ry                                                             
                                                                                                    
   TITEL  = PAW_PBE Fe 06Sep2000                                                                    
   LULTRA =        F    use ultrasoft PP ?                                                          
   IUNSCR =        1    unscreen: 0-lin 1-nonlin 2-no                                               
   RPACOR =    2.000    partial core radius                                                         
   POMASS =   55.847; ZVAL   =    8.000    mass and valenz                                          
   RCORE  =    2.300    outmost cutoff radius                                                       
   RWIGS  =    2.460; RWIGS  =    1.302    wigner-seitz radius (au A)                               
   ENMAX  =  267.882; ENMIN  =  200.911 eV                                                          
   RCLOC  =    1.701    cutoff for local pot                                                        
   LCOR   =        T    correct aug charges                                                         
   LPAW   =        T    paw PP                                                                      
   EAUG   =  511.368                                                                                
   DEXC   =    0.000                                                                                
   RMAX   =    2.356    core radius for proj-oper                                                   
   RAUG   =    1.300    factor for augmentation sphere                                              
   RDEP   =    2.442    radius for radial grids                                                     
   RDEPT  =    1.890    core radius for aug-charge                                                  
                                                                                                    
   Atomic configuration                                                                             
    9 entries                                                                                       
     n  l   j            E        occ.                                                              
     1  0  0.50     -6993.8440   2.0000                                                             
     2  0  0.50      -814.6047   2.0000                                                             
     2  1  1.50      -693.3689   6.0000                                                             
     3  0  0.50       -89.4732   2.0000                                                             
     3  1  1.50       -55.6373   6.0000                                                             
     3  2  2.50        -3.8151   7.0000                                                             
     4  0  0.50        -4.2551   1.0000                                                             
     4  1  1.50        -3.4015   0.0000                                                             
     4  3  2.50        -1.3606   0.0000                                                             
   Description                                                                                      
     l       E           TYP  RCUT    TYP  RCUT                                                     
     2     -3.8151135     23  2.300                                                                 
     2     -5.1756961     23  2.300                                                                 
     0     -4.2550963     23  2.300                                                                 
     0      7.2035603     23  2.300                                                                 
     1     -2.7211652     23  2.300                                                                 
     1     18.4316424     23  2.300                                                                 
  local pseudopotential read in
  partial core-charges read in
  partial kinetic energy density read in
  atomic valenz-charges read in
  non local Contribution for L=           2  read in
    real space projection operators read in
  non local Contribution for L=           2  read in
    real space projection operators read in
  non local Contribution for L=           0  read in
    real space projection operators read in
  non local Contribution for L=           0  read in
    real space projection operators read in
  non local Contribution for L=           1  read in
    real space projection operators read in
  non local Contribution for L=           1  read in
    real space projection operators read in
    PAW grid and wavefunctions read in
 
   number of l-projection  operators is LMAX  =           6
   number of lm-projection operators is LMMAX =          18
 
 -----------------------------------------------------------------------------
|                                                                             |
|               ----> ADVICE to this user running VASP <----                  |
|                                                                             |
|     You have a (more or less) 'large supercell' and for larger cells it     |
|     might be more efficient to use real-space projection operators.         |
|     Therefore, try LREAL= Auto in the INCAR file.                           |
|     Mind: For very accurate calculation, you might also keep the            |
|     reciprocal projection scheme (i.e. LREAL=.FALSE.).                      |
|                                                                             |
 -----------------------------------------------------------------------------

  PAW_PBE Mn 06Sep2000                  :
 energy of atom  1       EATOM= -416.7541
 kinetic energy error for atom=    0.0033 (will be added to EATOM!!)
  PAW_PBE Ni 02Aug2007                  :
 energy of atom  2       EATOM=-1077.6739
 kinetic energy error for atom=    0.0038 (will be added to EATOM!!)
  PAW_PBE Ge 05Jan2001                  :
 energy of atom  3       EATOM= -104.9960
 kinetic energy error for atom=    0.0003 (will be added to EATOM!!)
  PAW_PBE Fe 06Sep2000                  :
 energy of atom  4       EATOM= -594.3153
 kinetic energy error for atom=    0.0034 (will be added to EATOM!!)
 
 
 POSCAR: MnNiGe_orth
  positions in direct lattice
  No initial velocities read in
 exchange correlation table for  LEXCH =        8
   RHO(1)=    0.500       N(1)  =     2000
   RHO(2)=  100.500       N(2)  =     4000
 


--------------------------------------------------------------------------------------------------------


 ion  position               nearest neighbor table
   1  0.242  0.250  0.178-  41 2.44  45 2.44  32 2.49  44 2.68  40 2.68  16 2.70  18 2.71  29 2.77
                            25 2.77  24 2.84  28 2.84  14 3.07  10 3.07   7 3.12   3 3.12
   2  0.242  0.750  0.178-  41 2.44  45 2.44  33 2.49  44 2.68  40 2.68  17 2.70  19 2.71  29 2.77
                            25 2.77  24 2.84  28 2.84  14 3.07  10 3.07   8 3.12   4 3.12
   3  0.492  0.250  0.322-  42 2.44  46 2.44  34 2.49  45 2.68  41 2.68  18 2.70  20 2.71  30 2.77
                            26 2.77  25 2.84  29 2.84  11 3.07  48 3.07   1 3.12   5 3.12
   4  0.492  0.750  0.322-  42 2.44  46 2.44  35 2.49  45 2.68  41 2.68  19 2.70  21 2.71  30 2.77
                            26 2.77  25 2.84  29 2.84  11 3.07  48 3.07   2 3.12   6 3.12
   5  0.742  0.250  0.178-  43 2.44  47 2.44  36 2.49  46 2.68  42 2.68  20 2.70  22 2.71  31 2.77
                            27 2.77  26 2.84  30 2.84  15 3.07  12 3.07   7 3.12   3 3.12
   6  0.742  0.750  0.178-  43 2.44  47 2.44  37 2.49  46 2.68  42 2.68  21 2.70  23 2.71  31 2.77
                            27 2.77  26 2.84  30 2.84  15 3.07  12 3.07   8 3.12   4 3.12
   7  0.992  0.250  0.322-  40 2.44  44 2.44  38 2.49  43 2.68  47 2.68  22 2.70  16 2.71  28 2.77
                            24 2.77  31 2.84  27 2.84  13 3.07   9 3.07   1 3.12   5 3.12
   8  0.992  0.750  0.322-  40 2.44  44 2.44  39 2.49  43 2.68  47 2.68  23 2.70  17 2.71  28 2.77
                            24 2.77  31 2.84  27 2.84  13 3.07   9 3.07   2 3.12   6 3.12
   9  0.008  0.000  0.678-  38 2.44  39 2.44  40 2.49  33 2.68  32 2.68  24 2.70  27 2.71  23 2.77
                            22 2.77  17 2.84  16 2.84   8 3.07   7 3.07  10 3.12  12 3.12
  10  0.258  0.000  0.822-  32 2.44  33 2.44  41 2.49  35 2.68  34 2.68  25 2.70  24 2.71  17 2.77
                            16 2.77  19 2.84  18 2.84   2 3.07   1 3.07  11 3.12   9 3.12
  11  0.508  0.000  0.678-  34 2.44  35 2.44  42 2.49  37 2.68  36 2.68  26 2.70  25 2.71  19 2.77
                            18 2.77  21 2.84  20 2.84   4 3.07   3 3.07  10 3.12  12 3.12
  12  0.758  0.000  0.822-  36 2.44  37 2.44  43 2.49  39 2.68  38 2.68  27 2.70  26 2.71  21 2.77
                            20 2.77  23 2.84  22 2.84   6 3.07   5 3.07  11 3.12   9 3.12
  13  0.008  0.500  0.678-  38 2.44  39 2.44  44 2.49  33 2.68  32 2.68  28 2.70  31 2.71  23 2.77
                            22 2.77  17 2.84  16 2.84   8 3.07   7 3.07  14 3.12  15 3.12
  14  0.258  0.500  0.822-  32 2.44  33 2.44  45 2.49  35 2.68  34 2.68  29 2.70  28 2.71  17 2.77
                            16 2.77  19 2.84  18 2.84   2 3.07   1 3.07  48 3.12  13 3.12
  15  0.758  0.500  0.822-  36 2.44  37 2.44  47 2.49  39 2.68  38 2.68  31 2.70  30 2.71  21 2.77
                            20 2.77  23 2.84  22 2.84   6 3.07   5 3.07  48 3.12  13 3.12
  16  0.177  0.250  0.553-  40 2.27  44 2.27  32 2.33  34 2.39  25 2.62  29 2.62   1 2.70   7 2.71
                            10 2.77  14 2.77  13 2.84   9 2.84
  17  0.177  0.750  0.553-  40 2.27  44 2.27  33 2.33  35 2.39  25 2.62  29 2.62   2 2.70   8 2.71
                            10 2.77  14 2.77  13 2.84   9 2.84
  18  0.427  0.250  0.947-  41 2.27  45 2.27  34 2.33  36 2.39  26 2.62  30 2.62   3 2.70   1 2.71
                            11 2.77  48 2.77  14 2.84  10 2.84
  19  0.427  0.750  0.947-  41 2.27  45 2.27  35 2.33  37 2.39  26 2.62  30 2.62   4 2.70   2 2.71
                            11 2.77  48 2.77  14 2.84  10 2.84
  20  0.677  0.250  0.553-  42 2.27  46 2.27  36 2.33  38 2.39  27 2.62  31 2.62   5 2.70   3 2.71
                            12 2.77  15 2.77  11 2.84  48 2.84
  21  0.677  0.750  0.553-  42 2.27  46 2.27  37 2.33  39 2.39  27 2.62  31 2.62   6 2.70   4 2.71
                            12 2.77  15 2.77  11 2.84  48 2.84
  22  0.927  0.250  0.947-  43 2.27  47 2.27  38 2.33  32 2.39  24 2.62  28 2.62   7 2.70   5 2.71
                             9 2.77  13 2.77  12 2.84  15 2.84
  23  0.927  0.750  0.947-  43 2.27  47 2.27  39 2.33  33 2.39  24 2.62  28 2.62   8 2.70   6 2.71
                             9 2.77  13 2.77  12 2.84  15 2.84
  24  0.073  0.000  0.053-  32 2.27  33 2.27  40 2.33  43 2.39  22 2.62  23 2.62   9 2.70  10 2.71
                             7 2.77   8 2.77   1 2.84   2 2.84
  25  0.323  0.000  0.447-  34 2.27  35 2.27  41 2.33  40 2.39  16 2.62  17 2.62  10 2.70  11 2.71
                             1 2.77   2 2.77   3 2.84   4 2.84
  26  0.573  0.000  0.053-  36 2.27  37 2.27  42 2.33  41 2.39  18 2.62  19 2.62  11 2.70  12 2.71
                             3 2.77   4 2.77   5 2.84   6 2.84
  27  0.823  0.000  0.447-  38 2.27  39 2.27  43 2.33  42 2.39  20 2.62  21 2.62  12 2.70   9 2.71
                             5 2.77   6 2.77   7 2.84   8 2.84
  28  0.073  0.500  0.053-  32 2.27  33 2.27  44 2.33  47 2.39  22 2.62  23 2.62  13 2.70  14 2.71
                             7 2.77   8 2.77   1 2.84   2 2.84
  29  0.323  0.500  0.447-  34 2.27  35 2.27  45 2.33  44 2.39  16 2.62  17 2.62  14 2.70  48 2.71
                             1 2.77   2 2.77   3 2.84   4 2.84
  30  0.573  0.500  0.053-  36 2.27  37 2.27  46 2.33  45 2.39  18 2.62  19 2.62  48 2.70  15 2.71
                             3 2.77   4 2.77   5 2.84   6 2.84
  31  0.823  0.500  0.447-  38 2.27  39 2.27  47 2.33  46 2.39  20 2.62  21 2.62  15 2.70  13 2.71
                             5 2.77   6 2.77   7 2.84   8 2.84
  32  0.125  0.250  0.878-  24 2.27  28 2.27  16 2.33  22 2.39  10 2.44  14 2.44   1 2.49  13 2.68
                             9 2.68
  33  0.125  0.750  0.878-  24 2.27  28 2.27  17 2.33  23 2.39  10 2.44  14 2.44   2 2.49  13 2.68
                             9 2.68
  34  0.375  0.250  0.622-  25 2.27  29 2.27  18 2.33  16 2.39  11 2.44  48 2.44   3 2.49  14 2.68
                            10 2.68
  35  0.375  0.750  0.622-  25 2.27  29 2.27  19 2.33  17 2.39  11 2.44  48 2.44   4 2.49  14 2.68
                            10 2.68
  36  0.625  0.250  0.878-  26 2.27  30 2.27  20 2.33  18 2.39  12 2.44  15 2.44   5 2.49  11 2.68
                            48 2.68
  37  0.625  0.750  0.878-  26 2.27  30 2.27  21 2.33  19 2.39  12 2.44  15 2.44   6 2.49  11 2.68
                            48 2.68
  38  0.875  0.250  0.622-  27 2.27  31 2.27  22 2.33  20 2.39   9 2.44  13 2.44   7 2.49  12 2.68
                            15 2.68
  39  0.875  0.750  0.622-  27 2.27  31 2.27  23 2.33  21 2.39   9 2.44  13 2.44   8 2.49  12 2.68
                            15 2.68
  40  0.125  0.000  0.378-  16 2.27  17 2.27  24 2.33  25 2.39   7 2.44   8 2.44   9 2.49   2 2.68
                             1 2.68
  41  0.375  0.000  0.122-  18 2.27  19 2.27  25 2.33  26 2.39   1 2.44   2 2.44  10 2.49   4 2.68
                             3 2.68
  42  0.625  0.000  0.378-  20 2.27  21 2.27  26 2.33  27 2.39   3 2.44   4 2.44  11 2.49   6 2.68
                             5 2.68
  43  0.875  0.000  0.122-  22 2.27  23 2.27  27 2.33  24 2.39   5 2.44   6 2.44  12 2.49   8 2.68
                             7 2.68
  44  0.125  0.500  0.378-  16 2.27  17 2.27  28 2.33  29 2.39   7 2.44   8 2.44  13 2.49   2 2.68
                             1 2.68
  45  0.375  0.500  0.122-  18 2.27  19 2.27  29 2.33  30 2.39   1 2.44   2 2.44  14 2.49   4 2.68
                             3 2.68
  46  0.625  0.500  0.378-  20 2.27  21 2.27  30 2.33  31 2.39   3 2.44   4 2.44  48 2.49   6 2.68
                             5 2.68
  47  0.875  0.500  0.122-  22 2.27  23 2.27  31 2.33  28 2.39   5 2.44   6 2.44  15 2.49   8 2.68
                             7 2.68
  48  0.508  0.500  0.678-  34 2.44  35 2.44  46 2.49  37 2.68  36 2.68  30 2.70  29 2.71  19 2.77
                            18 2.77  21 2.84  20 2.84   4 3.07   3 3.07  14 3.12  15 3.12
 
  LATTYP: Found a simple orthorhombic cell.
 ALAT       =     6.9141898155
 B/A-ratio  =     1.0555017973
 C/A-ratio  =     1.7085153923
  
  Lattice vectors:
  
 A1 = (   0.0000000000,   0.0000000000,  -6.9141898155)
 A2 = (   0.0000000000,  -7.2979397774,   0.0000000000)
 A3 = ( -11.8129997253,   0.0000000000,   0.0000000000)


Analysis of symmetry for initial positions (statically):
=====================================================================
 Subroutine PRICEL returns:
 Original cell was already a primitive cell.
 

 Routine SETGRP: Setting up the symmetry group for a 
 simple orthorhombic supercell.


 Subroutine GETGRP returns: Found  2 space group operations
 (whereof  2 operations were pure point group operations)
 out of a pool of  8 trial point group operations.


The static configuration has the point symmetry C_1h.


Analysis of symmetry for dynamics (positions and initial velocities):
=====================================================================
 Subroutine PRICEL returns:
 Original cell was already a primitive cell.
 

 Routine SETGRP: Setting up the symmetry group for a 
 simple orthorhombic supercell.


 Subroutine GETGRP returns: Found  2 space group operations
 (whereof  2 operations were pure point group operations)
 out of a pool of  8 trial point group operations.


The dynamic configuration has the point symmetry C_1h.


 Subroutine INISYM returns: Found  2 space group operations
 (whereof  2 operations are pure point group operations),
 and found     1 'primitive' translations


----------------------------------------------------------------------------------------

                                     Primitive cell                                     

  volume of cell :     596.0762

  direct lattice vectors                    reciprocal lattice vectors
    11.812999725  0.000000000  0.000000000     0.084652503  0.000000000  0.000000000
     0.000000000  7.297939777  0.000000000     0.000000000  0.137024973  0.000000000
     0.000000000  0.000000000  6.914189816     0.000000000  0.000000000  0.144630105

  length of vectors
    11.812999725  7.297939777  6.914189816     0.084652503  0.137024973  0.144630105

  position of ions in fractional coordinates (direct lattice)
     0.241899997  0.250000000  0.178299993
     0.241899997  0.750000000  0.178299993
     0.491899997  0.250000000  0.321700007
     0.491899997  0.750000000  0.321700007
     0.741900027  0.250000000  0.178299993
     0.741900027  0.750000000  0.178299993
     0.991900027  0.250000000  0.321700007
     0.991900027  0.750000000  0.321700007
     0.008100000  0.000000000  0.678300023
     0.258100003  0.000000000  0.821699977
     0.508099973  0.000000000  0.678300023
     0.758099973  0.000000000  0.821699977
     0.008100000  0.500000000  0.678300023
     0.258100003  0.500000000  0.821699977
     0.758099973  0.500000000  0.821699977
     0.176699996  0.250000000  0.553300023
     0.176699996  0.750000000  0.553300023
     0.426699996  0.250000000  0.946699977
     0.426699996  0.750000000  0.946699977
     0.676699996  0.250000000  0.553300023
     0.676699996  0.750000000  0.553300023
     0.926699996  0.250000000  0.946699977
     0.926699996  0.750000000  0.946699977
     0.073299997  0.000000000  0.053300001
     0.323300004  0.000000000  0.446700007
     0.573300004  0.000000000  0.053300001
     0.823300004  0.000000000  0.446700007
     0.073299997  0.500000000  0.053300001
     0.323300004  0.500000000  0.446700007
     0.573300004  0.500000000  0.053300001
     0.823300004  0.500000000  0.446700007
     0.125249997  0.250000000  0.878300011
     0.125249997  0.750000000  0.878300011
     0.375250012  0.250000000  0.621699989
     0.375250012  0.750000000  0.621699989
     0.625249982  0.250000000  0.878300011
     0.625249982  0.750000000  0.878300011
     0.875249982  0.250000000  0.621699989
     0.875249982  0.750000000  0.621699989
     0.124750003  0.000000000  0.378300011
     0.374749988  0.000000000  0.121699996
     0.624750018  0.000000000  0.378300011
     0.874750018  0.000000000  0.121699996
     0.124750003  0.500000000  0.378300011
     0.374749988  0.500000000  0.121699996
     0.624750018  0.500000000  0.378300011
     0.874750018  0.500000000  0.121699996
     0.508099973  0.500000000  0.678300023

  ion indices of the primitive-cell ions
   primitive index   ion index
                 1           1
                 2           2
                 3           3
                 4           4
                 5           5
                 6           6
                 7           7
                 8           8
                 9           9
                10          10
                11          11
                12          12
                13          13
                14          14
                15          15
                16          16
                17          17
                18          18
                19          19
                20          20
                21          21
                22          22
                23          23
                24          24
                25          25
                26          26
                27          27
                28          28
                29          29
                30          30
                31          31
                32          32
                33          33
                34          34
                35          35
                36          36
                37          37
                38          38
                39          39
                40          40
                41          41
                42          42
                43          43
                44          44
                45          45
                46          46
                47          47
                48          48

----------------------------------------------------------------------------------------

 
 
 KPOINTS: Auto                                    

Automatic generation of k-mesh.
Space group operators:
 irot       det(A)        alpha          n_x          n_y          n_z        tau_x        tau_y        tau_z
    1     1.000000     0.000000     1.000000     0.000000     0.000000     0.000000     0.000000     0.000000
    2    -1.000000   180.000000     0.000000     1.000000     0.000000     0.000000     0.000000     0.000000
 
 Subroutine IBZKPT returns following result:
 ===========================================
 
 Found     60 irreducible k-points:
 
 Following reciprocal coordinates:
            Coordinates               Weight
  0.000000  0.000000  0.000000      1.000000
  0.250000  0.000000  0.000000      2.000000
  0.500000  0.000000  0.000000      1.000000
  0.000000  0.142857  0.000000      2.000000
  0.250000  0.142857  0.000000      4.000000
  0.500000  0.142857  0.000000      2.000000
  0.000000  0.285714  0.000000      2.000000
  0.250000  0.285714  0.000000      4.000000
  0.500000  0.285714  0.000000      2.000000
  0.000000  0.428571  0.000000      2.000000
  0.250000  0.428571  0.000000      4.000000
  0.500000  0.428571  0.000000      2.000000
  0.000000  0.000000  0.142857      2.000000
  0.250000  0.000000  0.142857      2.000000
 -0.250000  0.000000  0.142857      2.000000
  0.500000  0.000000  0.142857      2.000000
  0.000000  0.142857  0.142857      4.000000
  0.250000  0.142857  0.142857      4.000000
 -0.250000 -0.142857  0.142857      4.000000
  0.500000  0.142857  0.142857      4.000000
  0.000000  0.285714  0.142857      4.000000
  0.250000  0.285714  0.142857      4.000000
 -0.250000 -0.285714  0.142857      4.000000
  0.500000  0.285714  0.142857      4.000000
  0.000000  0.428571  0.142857      4.000000
  0.250000  0.428571  0.142857      4.000000
 -0.250000 -0.428571  0.142857      4.000000
  0.500000  0.428571  0.142857      4.000000
  0.000000  0.000000  0.285714      2.000000
  0.250000  0.000000  0.285714      2.000000
 -0.250000  0.000000  0.285714      2.000000
  0.500000  0.000000  0.285714      2.000000
  0.000000  0.142857  0.285714      4.000000
  0.250000  0.142857  0.285714      4.000000
 -0.250000 -0.142857  0.285714      4.000000
  0.500000  0.142857  0.285714      4.000000
  0.000000  0.285714  0.285714      4.000000
  0.250000  0.285714  0.285714      4.000000
 -0.250000 -0.285714  0.285714      4.000000
  0.500000  0.285714  0.285714      4.000000
  0.000000  0.428571  0.285714      4.000000
  0.250000  0.428571  0.285714      4.000000
 -0.250000 -0.428571  0.285714      4.000000
  0.500000  0.428571  0.285714      4.000000
  0.000000  0.000000  0.428571      2.000000
  0.250000  0.000000  0.428571      2.000000
 -0.250000  0.000000  0.428571      2.000000
  0.500000  0.000000  0.428571      2.000000
  0.000000  0.142857  0.428571      4.000000
  0.250000  0.142857  0.428571      4.000000
 -0.250000 -0.142857  0.428571      4.000000
  0.500000  0.142857  0.428571      4.000000
  0.000000  0.285714  0.428571      4.000000
  0.250000  0.285714  0.428571      4.000000
 -0.250000 -0.285714  0.428571      4.000000
  0.500000  0.285714  0.428571      4.000000
  0.000000  0.428571  0.428571      4.000000
  0.250000  0.428571  0.428571      4.000000
 -0.250000 -0.428571  0.428571      4.000000
  0.500000  0.428571  0.428571      4.000000
 
 Following cartesian coordinates:
            Coordinates               Weight
  0.000000  0.000000  0.000000      1.000000
  0.021163  0.000000  0.000000      2.000000
  0.042326  0.000000  0.000000      1.000000
  0.000000  0.019575  0.000000      2.000000
  0.021163  0.019575  0.000000      4.000000
  0.042326  0.019575  0.000000      2.000000
  0.000000  0.039150  0.000000      2.000000
  0.021163  0.039150  0.000000      4.000000
  0.042326  0.039150  0.000000      2.000000
  0.000000  0.058725  0.000000      2.000000
  0.021163  0.058725  0.000000      4.000000
  0.042326  0.058725  0.000000      2.000000
  0.000000  0.000000  0.020661      2.000000
  0.021163  0.000000  0.020661      2.000000
 -0.021163  0.000000  0.020661      2.000000
  0.042326  0.000000  0.020661      2.000000
  0.000000  0.019575  0.020661      4.000000
  0.021163  0.019575  0.020661      4.000000
 -0.021163 -0.019575  0.020661      4.000000
  0.042326  0.019575  0.020661      4.000000
  0.000000  0.039150  0.020661      4.000000
  0.021163  0.039150  0.020661      4.000000
 -0.021163 -0.039150  0.020661      4.000000
  0.042326  0.039150  0.020661      4.000000
  0.000000  0.058725  0.020661      4.000000
  0.021163  0.058725  0.020661      4.000000
 -0.021163 -0.058725  0.020661      4.000000
  0.042326  0.058725  0.020661      4.000000
  0.000000  0.000000  0.041323      2.000000
  0.021163  0.000000  0.041323      2.000000
 -0.021163  0.000000  0.041323      2.000000
  0.042326  0.000000  0.041323      2.000000
  0.000000  0.019575  0.041323      4.000000
  0.021163  0.019575  0.041323      4.000000
 -0.021163 -0.019575  0.041323      4.000000
  0.042326  0.019575  0.041323      4.000000
  0.000000  0.039150  0.041323      4.000000
  0.021163  0.039150  0.041323      4.000000
 -0.021163 -0.039150  0.041323      4.000000
  0.042326  0.039150  0.041323      4.000000
  0.000000  0.058725  0.041323      4.000000
  0.021163  0.058725  0.041323      4.000000
 -0.021163 -0.058725  0.041323      4.000000
  0.042326  0.058725  0.041323      4.000000
  0.000000  0.000000  0.061984      2.000000
  0.021163  0.000000  0.061984      2.000000
 -0.021163  0.000000  0.061984      2.000000
  0.042326  0.000000  0.061984      2.000000
  0.000000  0.019575  0.061984      4.000000
  0.021163  0.019575  0.061984      4.000000
 -0.021163 -0.019575  0.061984      4.000000
  0.042326  0.019575  0.061984      4.000000
  0.000000  0.039150  0.061984      4.000000
  0.021163  0.039150  0.061984      4.000000
 -0.021163 -0.039150  0.061984      4.000000
  0.042326  0.039150  0.061984      4.000000
  0.000000  0.058725  0.061984      4.000000
  0.021163  0.058725  0.061984      4.000000
 -0.021163 -0.058725  0.061984      4.000000
  0.042326  0.058725  0.061984      4.000000
 


--------------------------------------------------------------------------------------------------------




 Dimension of arrays:
   k-points           NKPTS =     60   k-points in BZ     NKDIM =     60   number of bands    NBANDS=    360
   number of dos      NEDOS =    301   number of ions     NIONS =     48
   non local maximal  LDIM  =      6   non local SUM 2l+1 LMDIM =     18
   total plane-waves  NPLWV = 201600
   max r-space proj   IRMAX =      1   max aug-charges    IRDMAX=  18579
   dimension x,y,z NGX =    84 NGY =   50 NGZ =   48
   dimension x,y,z NGXF=   168 NGYF=  100 NGZF=   96
   support grid    NGXF=   168 NGYF=  100 NGZF=   96
   ions per type =              15  16  16   1
   NGX,Y,Z   is equivalent  to a cutoff of  11.82, 11.39, 11.54 a.u.
   NGXF,Y,Z  is equivalent  to a cutoff of  23.64, 22.78, 23.08 a.u.

 SYSTEM =  MnFeNiGe_nmag_orth                      
 POSCAR =  MnNiGe_orth                             

 Startparameter for this run:
   NWRITE =      2    write-flag & timer
   PREC   = accura    normal or accurate (medium, high low for compatibility)
   ISTART =      0    job   : 0-new  1-cont  2-samecut
   ICHARG =      2    charge: 1-file 2-atom 10-const
   ISPIN  =      1    spin polarized calculation?
   LNONCOLLINEAR =      F non collinear calculations
   LSORBIT =      F    spin-orbit coupling
   INIWAV =      1    electr: 0-lowe 1-rand  2-diag
   LASPH  =      F    aspherical Exc in radial PAW
   METAGGA=      F    non-selfconsistent MetaGGA calc.

 Electronic Relaxation 1
   ENCUT  =  450.0 eV  33.07 Ry    5.75 a.u.  20.43 12.62 11.96*2*pi/ulx,y,z
   ENINI  =  450.0     initial cutoff
   ENAUG  =  544.6 eV  augmentation charge cutoff
   NELM   =    200;   NELMIN=  5; NELMDL= -5     # of ELM steps 
   EDIFF  = 0.1E-04   stopping-criterion for ELM
   LREAL  =      F    real-space projection
   NLSPLINE    = F    spline interpolate recip. space projectors
   LCOMPAT=      F    compatible to vasp.4.4
   GGA_COMPAT  = T    GGA compatible to vasp.4.4-vasp.4.6
   LMAXPAW     = -100 max onsite density
   LMAXMIX     =    2 max onsite mixed and CHGCAR
   VOSKOWN=      0    Vosko Wilk Nusair interpolation
   ROPT   =    0.00000   0.00000   0.00000   0.00000
 Ionic relaxation
   EDIFFG = 0.1E-03   stopping-criterion for IOM
   NSW    =    400    number of steps for IOM
   NBLOCK =      1;   KBLOCK =    400    inner block; outer block 
   IBRION =      2    ionic relax: 0-MD 1-quasi-New 2-CG
   NFREE  =      1    steps in history (QN), initial steepest desc. (CG)
   ISIF   =      7    stress and relaxation
   IWAVPR =     11    prediction:  0-non 1-charg 2-wave 3-comb
   ISYM   =      2    0-nonsym 1-usesym 2-fastsym
   LCORR  =      T    Harris-Foulkes like correction to forces

   POTIM  = 0.5000    time-step for ionic-motion
   TEIN   =    0.0    initial temperature
   TEBEG  =    0.0;   TEEND  =   0.0 temperature during run
   SMASS  =  -3.00    Nose mass-parameter (am)
   estimated Nose-frequenzy (Omega)   =  0.10E-29 period in steps = 0.13E+47 mass=  -0.319E-26a.u.
   SCALEE = 1.0000    scale energy and forces
   NPACO  =    256;   APACO  = 16.0  distance and # of slots for P.C.
   PSTRESS=    0.0 pullay stress

  Mass of Ions in am
   POMASS =  54.94 58.69 72.61 55.85
  Ionic Valenz
   ZVAL   =   7.00 10.00  4.00  8.00
  Atomic Wigner-Seitz radii
   RWIGS  =  -1.00 -1.00 -1.00 -1.00
  virtual crystal weights 
   VCA    =   1.00  1.00  1.00  1.00
   NELECT =     337.0000    total number of electrons
   NUPDOWN=      -1.0000    fix difference up-down

 DOS related values:
   EMIN   =  10.00;   EMAX   =-10.00  energy-range for DOS
   EFERMI =   0.00
   ISMEAR =     1;   SIGMA  =   0.20  broadening in eV -4-tet -1-fermi 0-gaus

 Electronic relaxation 2 (details)
   IALGO  =     38    algorithm
   LDIAG  =      T    sub-space diagonalisation (order eigenvalues)
   LSUBROT=      F    optimize rotation matrix (better conditioning)
   TURBO    =      0    0=normal 1=particle mesh
   IRESTART =      0    0=no restart 2=restart with 2 vectors
   NREBOOT  =      0    no. of reboots
   NMIN     =      0    reboot dimension
   EREF     =   0.00    reference energy to select bands
   IMIX   =      4    mixing-type and parameters
     AMIX     =   0.40;   BMIX     =  1.00
     AMIX_MAG =   1.60;   BMIX_MAG =  1.00
     AMIN     =   0.10
     WC   =   100.;   INIMIX=   1;  MIXPRE=   1;  MAXMIX= -45

 Intra band minimization:
   WEIMIN = 0.0010     energy-eigenvalue tresh-hold
   EBREAK =  0.69E-08  absolut break condition
   DEPER  =   0.30     relativ break condition  

   TIME   =   0.40     timestep for ELM

  volume/ion in A,a.u.               =      12.42        83.80
  Fermi-wavevector in a.u.,A,eV,Ry     =   1.353685  2.558093 24.932165  1.832462
  Thomas-Fermi vector in A             =   2.480919
 
 Write flags
   LWAVE        =      T    write WAVECAR
   LDOWNSAMPLE  =      F    k-point downsampling of WAVECAR
   LCHARG       =      T    write CHGCAR
   LVTOT        =      F    write LOCPOT, total local potential
   LVHAR        =      F    write LOCPOT, Hartree potential only
   LELF         =      F    write electronic localiz. function (ELF)
   LORBIT       =      0    0 simple, 1 ext, 2 COOP (PROOUT), +10 PAW based schemes


 Dipole corrections
   LMONO  =      F    monopole corrections only (constant potential shift)
   LDIPOL =      F    correct potential (dipole corrections)
   IDIPOL =      0    1-x, 2-y, 3-z, 4-all directions 
   EPSILON=  1.0000000 bulk dielectric constant

 Exchange correlation treatment:
   GGA     =    --    GGA type
   LEXCH   =     8    internal setting for exchange type
   VOSKOWN=      0    Vosko Wilk Nusair interpolation
   LHFCALC =     F    Hartree Fock is set to
   LHFONE  =     F    Hartree Fock one center treatment
   AEXX    =    0.0000 exact exchange contribution

 Linear response parameters
   LEPSILON=     F    determine dielectric tensor
   LRPA    =     F    only Hartree local field effects (RPA)
   LNABLA  =     F    use nabla operator in PAW spheres
   LVEL    =     F    velocity operator in full k-point grid
   LINTERFAST=   F  fast interpolation
   KINTER  =     0    interpolate to denser k-point grid
   CSHIFT  =0.1000    complex shift for real part using Kramers Kronig
   OMEGAMAX=  -1.0    maximum frequency
   DEG_THRESHOLD= 0.2000000E-02 threshold for treating states as degnerate
   RTIME   =   -0.100 relaxation time in fs
  (WPLASMAI=    0.000 imaginary part of plasma frequency in eV, 0.658/RTIME)
   DFIELD  = 0.0000000 0.0000000 0.0000000 field for delta impulse in time
 
 Orbital magnetization related:
   ORBITALMAG=     F  switch on orbital magnetization
   LCHIMAG   =     F  perturbation theory with respect to B field
   DQ        =  0.001000  dq finite difference perturbation B field
   LLRAUG    =     F  two centre corrections for induced B field



--------------------------------------------------------------------------------------------------------


 conjugate gradient relaxation of ions
 charge density and potential will be updated during run
 non-spin polarized calculation
 Variant of blocked Davidson
 Davidson routine will perform the subspace rotation
 perform sub-space diagonalisation
    after iterative eigenvector-optimisation
 modified Broyden-mixing scheme, WC =      100.0
 initial mixing is a Kerker type mixing with AMIX =  0.4000 and BMIX =      1.0000
 Hartree-type preconditioning will be used
 using additional bands          191
 reciprocal scheme for non local part
 use partial core corrections
 calculate Harris-corrections to forces 
   (improved forces if not selfconsistent)
 use gradient corrections 
 use of overlap-Matrix (Vanderbilt PP)
 Methfessel and Paxton  Order N= 1 SIGMA  =   0.20


--------------------------------------------------------------------------------------------------------


  energy-cutoff  :      450.00
  volume of cell :      596.08
      direct lattice vectors                 reciprocal lattice vectors
    11.812999725  0.000000000  0.000000000     0.084652503  0.000000000  0.000000000
     0.000000000  7.297939777  0.000000000     0.000000000  0.137024973  0.000000000
     0.000000000  0.000000000  6.914189816     0.000000000  0.000000000  0.144630105

  length of vectors
    11.812999725  7.297939777  6.914189816     0.084652503  0.137024973  0.144630105


 
 k-points in units of 2pi/SCALE and weight: Auto                                    
   0.00000000  0.00000000  0.00000000       0.005
   0.02116313  0.00000000  0.00000000       0.010
   0.04232625  0.00000000  0.00000000       0.005
   0.00000000  0.01957500  0.00000000       0.010
   0.02116313  0.01957500  0.00000000       0.020
   0.04232625  0.01957500  0.00000000       0.010
   0.00000000  0.03914999  0.00000000       0.010
   0.02116313  0.03914999  0.00000000       0.020
   0.04232625  0.03914999  0.00000000       0.010
   0.00000000  0.05872499  0.00000000       0.010
   0.02116313  0.05872499  0.00000000       0.020
   0.04232625  0.05872499  0.00000000       0.010
   0.00000000  0.00000000  0.02066144       0.010
   0.02116313  0.00000000  0.02066144       0.010
  -0.02116313  0.00000000  0.02066144       0.010
   0.04232625  0.00000000  0.02066144       0.010
   0.00000000  0.01957500  0.02066144       0.020
   0.02116313  0.01957500  0.02066144       0.020
  -0.02116313 -0.01957500  0.02066144       0.020
   0.04232625  0.01957500  0.02066144       0.020
   0.00000000  0.03914999  0.02066144       0.020
   0.02116313  0.03914999  0.02066144       0.020
  -0.02116313 -0.03914999  0.02066144       0.020
   0.04232625  0.03914999  0.02066144       0.020
   0.00000000  0.05872499  0.02066144       0.020
   0.02116313  0.05872499  0.02066144       0.020
  -0.02116313 -0.05872499  0.02066144       0.020
   0.04232625  0.05872499  0.02066144       0.020
   0.00000000  0.00000000  0.04132289       0.010
   0.02116313  0.00000000  0.04132289       0.010
  -0.02116313  0.00000000  0.04132289       0.010
   0.04232625  0.00000000  0.04132289       0.010
   0.00000000  0.01957500  0.04132289       0.020
   0.02116313  0.01957500  0.04132289       0.020
  -0.02116313 -0.01957500  0.04132289       0.020
   0.04232625  0.01957500  0.04132289       0.020
   0.00000000  0.03914999  0.04132289       0.020
   0.02116313  0.03914999  0.04132289       0.020
  -0.02116313 -0.03914999  0.04132289       0.020
   0.04232625  0.03914999  0.04132289       0.020
   0.00000000  0.05872499  0.04132289       0.020
   0.02116313  0.05872499  0.04132289       0.020
  -0.02116313 -0.05872499  0.04132289       0.020
   0.04232625  0.05872499  0.04132289       0.020
   0.00000000  0.00000000  0.06198433       0.010
   0.02116313  0.00000000  0.06198433       0.010
  -0.02116313  0.00000000  0.06198433       0.010
   0.04232625  0.00000000  0.06198433       0.010
   0.00000000  0.01957500  0.06198433       0.020
   0.02116313  0.01957500  0.06198433       0.020
  -0.02116313 -0.01957500  0.06198433       0.020
   0.04232625  0.01957500  0.06198433       0.020
   0.00000000  0.03914999  0.06198433       0.020
   0.02116313  0.03914999  0.06198433       0.020
  -0.02116313 -0.03914999  0.06198433       0.020
   0.04232625  0.03914999  0.06198433       0.020
   0.00000000  0.05872499  0.06198433       0.020
   0.02116313  0.05872499  0.06198433       0.020
  -0.02116313 -0.05872499  0.06198433       0.020
   0.04232625  0.05872499  0.06198433       0.020
 
 k-points in reciprocal lattice and weights: Auto                                    
   0.00000000  0.00000000  0.00000000       0.005
   0.25000000  0.00000000  0.00000000       0.010
   0.50000000  0.00000000  0.00000000       0.005
   0.00000000  0.14285714  0.00000000       0.010
   0.25000000  0.14285714  0.00000000       0.020
   0.50000000  0.14285714  0.00000000       0.010
   0.00000000  0.28571429  0.00000000       0.010
   0.25000000  0.28571429  0.00000000       0.020
   0.50000000  0.28571429  0.00000000       0.010
   0.00000000  0.42857143  0.00000000       0.010
   0.25000000  0.42857143  0.00000000       0.020
   0.50000000  0.42857143  0.00000000       0.010
   0.00000000  0.00000000  0.14285714       0.010
   0.25000000  0.00000000  0.14285714       0.010
  -0.25000000  0.00000000  0.14285714       0.010
   0.50000000  0.00000000  0.14285714       0.010
   0.00000000  0.14285714  0.14285714       0.020
   0.25000000  0.14285714  0.14285714       0.020
  -0.25000000 -0.14285714  0.14285714       0.020
   0.50000000  0.14285714  0.14285714       0.020
   0.00000000  0.28571429  0.14285714       0.020
   0.25000000  0.28571429  0.14285714       0.020
  -0.25000000 -0.28571429  0.14285714       0.020
   0.50000000  0.28571429  0.14285714       0.020
   0.00000000  0.42857143  0.14285714       0.020
   0.25000000  0.42857143  0.14285714       0.020
  -0.25000000 -0.42857143  0.14285714       0.020
   0.50000000  0.42857143  0.14285714       0.020
   0.00000000  0.00000000  0.28571429       0.010
   0.25000000  0.00000000  0.28571429       0.010
  -0.25000000  0.00000000  0.28571429       0.010
   0.50000000  0.00000000  0.28571429       0.010
   0.00000000  0.14285714  0.28571429       0.020
   0.25000000  0.14285714  0.28571429       0.020
  -0.25000000 -0.14285714  0.28571429       0.020
   0.50000000  0.14285714  0.28571429       0.020
   0.00000000  0.28571429  0.28571429       0.020
   0.25000000  0.28571429  0.28571429       0.020
  -0.25000000 -0.28571429  0.28571429       0.020
   0.50000000  0.28571429  0.28571429       0.020
   0.00000000  0.42857143  0.28571429       0.020
   0.25000000  0.42857143  0.28571429       0.020
  -0.25000000 -0.42857143  0.28571429       0.020
   0.50000000  0.42857143  0.28571429       0.020
   0.00000000  0.00000000  0.42857143       0.010
   0.25000000  0.00000000  0.42857143       0.010
  -0.25000000  0.00000000  0.42857143       0.010
   0.50000000  0.00000000  0.42857143       0.010
   0.00000000  0.14285714  0.42857143       0.020
   0.25000000  0.14285714  0.42857143       0.020
  -0.25000000 -0.14285714  0.42857143       0.020
   0.50000000  0.14285714  0.42857143       0.020
   0.00000000  0.28571429  0.42857143       0.020
   0.25000000  0.28571429  0.42857143       0.020
  -0.25000000 -0.28571429  0.42857143       0.020
   0.50000000  0.28571429  0.42857143       0.020
   0.00000000  0.42857143  0.42857143       0.020
   0.25000000  0.42857143  0.42857143       0.020
  -0.25000000 -0.42857143  0.42857143       0.020
   0.50000000  0.42857143  0.42857143       0.020
 
 position of ions in fractional coordinates (direct lattice) 
   0.24190000  0.25000000  0.17829999
   0.24190000  0.75000000  0.17829999
   0.49190000  0.25000000  0.32170001
   0.49190000  0.75000000  0.32170001
   0.74190003  0.25000000  0.17829999
   0.74190003  0.75000000  0.17829999
   0.99190003  0.25000000  0.32170001
   0.99190003  0.75000000  0.32170001
   0.00810000  0.00000000  0.67830002
   0.25810000  0.00000000  0.82169998
   0.50809997  0.00000000  0.67830002
   0.75809997  0.00000000  0.82169998
   0.00810000  0.50000000  0.67830002
   0.25810000  0.50000000  0.82169998
   0.75809997  0.50000000  0.82169998
   0.17670000  0.25000000  0.55330002
   0.17670000  0.75000000  0.55330002
   0.42670000  0.25000000  0.94669998
   0.42670000  0.75000000  0.94669998
   0.67670000  0.25000000  0.55330002
   0.67670000  0.75000000  0.55330002
   0.92670000  0.25000000  0.94669998
   0.92670000  0.75000000  0.94669998
   0.07330000  0.00000000  0.05330000
   0.32330000  0.00000000  0.44670001
   0.57330000  0.00000000  0.05330000
   0.82330000  0.00000000  0.44670001
   0.07330000  0.50000000  0.05330000
   0.32330000  0.50000000  0.44670001
   0.57330000  0.50000000  0.05330000
   0.82330000  0.50000000  0.44670001
   0.12525000  0.25000000  0.87830001
   0.12525000  0.75000000  0.87830001
   0.37525001  0.25000000  0.62169999
   0.37525001  0.75000000  0.62169999
   0.62524998  0.25000000  0.87830001
   0.62524998  0.75000000  0.87830001
   0.87524998  0.25000000  0.62169999
   0.87524998  0.75000000  0.62169999
   0.12475000  0.00000000  0.37830001
   0.37474999  0.00000000  0.12170000
   0.62475002  0.00000000  0.37830001
   0.87475002  0.00000000  0.12170000
   0.12475000  0.50000000  0.37830001
   0.37474999  0.50000000  0.12170000
   0.62475002  0.50000000  0.37830001
   0.87475002  0.50000000  0.12170000
   0.50809997  0.50000000  0.67830002
 
 position of ions in cartesian coordinates  (Angst):
   2.85756460  1.82448494  1.23280000
   2.85756460  5.47345483  1.23280000
   5.81081453  1.82448494  2.22429491
   5.81081453  5.47345483  2.22429491
   8.76406482  1.82448494  1.23280000
   8.76406482  5.47345483  1.23280000
  11.71731475  1.82448494  2.22429491
  11.71731475  5.47345483  2.22429491
   0.09568530  0.00000000  4.68989511
   3.04893526  0.00000000  5.68138961
   6.00218484  0.00000000  4.68989511
   8.95543477  0.00000000  5.68138961
   0.09568530  3.64896989  4.68989511
   3.04893526  3.64896989  5.68138961
   8.95543477  3.64896989  5.68138961
   2.08735700  1.82448494  3.82562138
   2.08735700  5.47345483  3.82562138
   5.04060694  1.82448494  6.54566334
   5.04060694  5.47345483  6.54566334
   7.99385687  1.82448494  3.82562138
   7.99385687  5.47345483  3.82562138
  10.94710680  1.82448494  6.54566334
  10.94710680  5.47345483  6.54566334
   0.86589284  0.00000000  0.36852632
   3.81914286  0.00000000  3.08856864
   6.77239279  0.00000000  0.36852632
   9.72564272  0.00000000  3.08856864
   0.86589284  3.64896989  0.36852632
   3.81914286  3.64896989  3.08856864
   6.77239279  3.64896989  0.36852632
   9.72564272  3.64896989  3.08856864
   1.47957818  1.82448494  6.07273299
   1.47957818  5.47345483  6.07273299
   4.43282829  1.82448494  4.29855173
   4.43282829  5.47345483  4.29855173
   7.38607787  1.82448494  6.07273299
   7.38607787  5.47345483  6.07273299
  10.33932780  1.82448494  4.29855173
  10.33932780  5.47345483  4.29855173
   1.47367175  0.00000000  2.61563808
   4.42692151  0.00000000  0.84145687
   7.38017179  0.00000000  2.61563808
  10.33342172  0.00000000  0.84145687
   1.47367175  3.64896989  2.61563808
   4.42692151  3.64896989  0.84145687
   7.38017179  3.64896989  2.61563808
  10.33342172  3.64896989  0.84145687
   6.00218484  3.64896989  4.68989511
 


--------------------------------------------------------------------------------------------------------


 k-point   1 :   0.0000 0.0000 0.0000  plane waves:   12919
 k-point   2 :   0.2500 0.0000 0.0000  plane waves:   12899
 k-point   3 :   0.5000 0.0000 0.0000  plane waves:   12884
 k-point   4 :   0.0000 0.1429 0.0000  plane waves:   12925
 k-point   5 :   0.2500 0.1429 0.0000  plane waves:   12925
 k-point   6 :   0.5000 0.1429 0.0000  plane waves:   12926
 k-point   7 :   0.0000 0.2857 0.0000  plane waves:   12923
 k-point   8 :   0.2500 0.2857 0.0000  plane waves:   12890
 k-point   9 :   0.5000 0.2857 0.0000  plane waves:   12914
 k-point  10 :   0.0000 0.4286 0.0000  plane waves:   12916
 k-point  11 :   0.2500 0.4286 0.0000  plane waves:   12877
 k-point  12 :   0.5000 0.4286 0.0000  plane waves:   12874
 k-point  13 :   0.0000 0.0000 0.1429  plane waves:   12950
 k-point  14 :   0.2500 0.0000 0.1429  plane waves:   12936
 k-point  15 :  -0.2500 0.0000 0.1429  plane waves:   12936
 k-point  16 :   0.5000 0.0000 0.1429  plane waves:   12930
 k-point  17 :   0.0000 0.1429 0.1429  plane waves:   12934
 k-point  18 :   0.2500 0.1429 0.1429  plane waves:   12918
 k-point  19 :  -0.2500-0.1429 0.1429  plane waves:   12918
 k-point  20 :   0.5000 0.1429 0.1429  plane waves:   12918
 k-point  21 :   0.0000 0.2857 0.1429  plane waves:   12892
 k-point  22 :   0.2500 0.2857 0.1429  plane waves:   12918
 k-point  23 :  -0.2500-0.2857 0.1429  plane waves:   12918
 k-point  24 :   0.5000 0.2857 0.1429  plane waves:   12898
 k-point  25 :   0.0000 0.4286 0.1429  plane waves:   12909
 k-point  26 :   0.2500 0.4286 0.1429  plane waves:   12895
 k-point  27 :  -0.2500-0.4286 0.1429  plane waves:   12895
 k-point  28 :   0.5000 0.4286 0.1429  plane waves:   12894
 k-point  29 :   0.0000 0.0000 0.2857  plane waves:   12920
 k-point  30 :   0.2500 0.0000 0.2857  plane waves:   12946
 k-point  31 :  -0.2500 0.0000 0.2857  plane waves:   12946
 k-point  32 :   0.5000 0.0000 0.2857  plane waves:   12930
 k-point  33 :   0.0000 0.1429 0.2857  plane waves:   12926
 k-point  34 :   0.2500 0.1429 0.2857  plane waves:   12936
 k-point  35 :  -0.2500-0.1429 0.2857  plane waves:   12936
 k-point  36 :   0.5000 0.1429 0.2857  plane waves:   12948
 k-point  37 :   0.0000 0.2857 0.2857  plane waves:   12923
 k-point  38 :   0.2500 0.2857 0.2857  plane waves:   12918
 k-point  39 :  -0.2500-0.2857 0.2857  plane waves:   12918
 k-point  40 :   0.5000 0.2857 0.2857  plane waves:   12928
 k-point  41 :   0.0000 0.4286 0.2857  plane waves:   12921
 k-point  42 :   0.2500 0.4286 0.2857  plane waves:   12917
 k-point  43 :  -0.2500-0.4286 0.2857  plane waves:   12917
 k-point  44 :   0.5000 0.4286 0.2857  plane waves:   12914
 k-point  45 :   0.0000 0.0000 0.4286  plane waves:   12918
 k-point  46 :   0.2500 0.0000 0.4286  plane waves:   12926
 k-point  47 :  -0.2500 0.0000 0.4286  plane waves:   12926
 k-point  48 :   0.5000 0.0000 0.4286  plane waves:   12924
 k-point  49 :   0.0000 0.1429 0.4286  plane waves:   12921
 k-point  50 :   0.2500 0.1429 0.4286  plane waves:   12937
 k-point  51 :  -0.2500-0.1429 0.4286  plane waves:   12937
 k-point  52 :   0.5000 0.1429 0.4286  plane waves:   12918
 k-point  53 :   0.0000 0.2857 0.4286  plane waves:   12942
 k-point  54 :   0.2500 0.2857 0.4286  plane waves:   12929
 k-point  55 :  -0.2500-0.2857 0.4286  plane waves:   12929
 k-point  56 :   0.5000 0.2857 0.4286  plane waves:   12936
 k-point  57 :   0.0000 0.4286 0.4286  plane waves:   12940
 k-point  58 :   0.2500 0.4286 0.4286  plane waves:   12939
 k-point  59 :  -0.2500-0.4286 0.4286  plane waves:   12939
 k-point  60 :   0.5000 0.4286 0.4286  plane waves:   12928

 maximum and minimum number of plane-waves per node :      2224     2106

 maximum number of plane-waves:     12950
 maximum index in each direction: 
   IXMAX=   20   IYMAX=   13   IZMAX=   11
   IXMIN=  -20   IYMIN=  -13   IZMIN=  -12


 parallel 3D FFT for wavefunctions:
    minimum data exchange during FFTs selected (reduces bandwidth)
 parallel 3D FFT for charge:
    minimum data exchange during FFTs selected (reduces bandwidth)


 total amount of memory used by VASP MPI-rank0   315872. kBytes
=======================================================================

   base      :      30000. kBytes
   nonl-proj :      76732. kBytes
   fftplans  :       3318. kBytes
   grid      :       6287. kBytes
   one-center:        124. kBytes
   wavefun   :     199411. kBytes
 
     INWAV:  cpu time    0.0010: real time    0.0073
 Broyden mixing: mesh for mixing (old mesh)
   NGX = 41   NGY = 25   NGZ = 23
  (NGX  =168   NGY  =100   NGZ  = 96)
  gives a total of  23575 points

 initial charge density was supplied:
 charge density of overlapping atoms calculated
 number of electron     337.0000000 magnetization 
 keeping initial charge density in first step


--------------------------------------------------------------------------------------------------------


 Maximum index for augmentation-charges          780 (set IRDMAX)


--------------------------------------------------------------------------------------------------------


 First call to EWALD:  gamma=   0.211
 Maximum number of real-space cells 2x 3x 3
 Maximum number of reciprocal cells 4x 2x 2

    FEWALD:  cpu time    0.0050: real time    0.0222


--------------------------------------- Iteration      1(   1)  ---------------------------------------


    POTLOK:  cpu time    0.0890: real time    0.5760
    SETDIJ:  cpu time    0.0200: real time    0.2197
     EDDAV:  cpu time  135.6744: real time  138.2615
       DOS:  cpu time    0.0330: real time    0.0791
    --------------------------------------------
      LOOP:  cpu time  135.8164: real time  139.1372

 eigenvalue-minimisations  : 43200
 total energy-change (2. order) : 0.2751624E+04  (-0.1019924E+05)
 number of electron     337.0000000 magnetization 
 augmentation part      337.0000000 magnetization 

 Free energy of the ion-electron system (eV)
  ---------------------------------------------------
  alpha Z        PSCENC =      1611.24600206
  Ewald energy   TEWEN  =    -22412.42134684
  -Hartree energ DENC   =     -6858.30464320
  -exchange      EXHF   =         0.00000000
  -V(xc)+E(xc)   XCENC  =       224.38040284
  PAW double counting   =     23474.76194546   -24095.12296225
  entropy T*S    EENTRO =         0.00641188
  eigenvalues    EBANDS =      5038.85176490
  atomic energy  EATOM  =     25768.22672671
  Solvation  Ediel_sol  =         0.00000000
  ---------------------------------------------------
  free energy    TOTEN  =      2751.62430157 eV

  energy without entropy =     2751.61788970  energy(sigma->0) =     2751.62216428


--------------------------------------------------------------------------------------------------------




--------------------------------------- Iteration      1(   2)  ---------------------------------------


     EDDAV:  cpu time  135.6034: real time  136.7962
       DOS:  cpu time    0.0260: real time    0.0293
    --------------------------------------------
      LOOP:  cpu time  135.6294: real time  136.8255

 eigenvalue-minimisations  : 43200
 total energy-change (2. order) :-0.2636689E+04  (-0.2346777E+04)
 number of electron     337.0000000 magnetization 
 augmentation part      337.0000000 magnetization 

 Free energy of the ion-electron system (eV)
  ---------------------------------------------------
  alpha Z        PSCENC =      1611.24600206
  Ewald energy   TEWEN  =    -22412.42134684
  -Hartree energ DENC   =     -6858.30464320
  -exchange      EXHF   =         0.00000000
  -V(xc)+E(xc)   XCENC  =       224.38040284
  PAW double counting   =     23474.76194546   -24095.12296225
  entropy T*S    EENTRO =        -0.00323345
  eigenvalues    EBANDS =      2402.17230962
  atomic energy  EATOM  =     25768.22672671
  Solvation  Ediel_sol  =         0.00000000
  ---------------------------------------------------
  free energy    TOTEN  =       114.93520096 eV

  energy without entropy =      114.93843441  energy(sigma->0) =      114.93627878


--------------------------------------------------------------------------------------------------------




--------------------------------------- Iteration      1(   3)  ---------------------------------------


     EDDAV:  cpu time  135.7854: real time  136.9121
       DOS:  cpu time    0.0360: real time    0.0392
    --------------------------------------------
      LOOP:  cpu time  135.8214: real time  136.9521

 eigenvalue-minimisations  : 43288
 total energy-change (2. order) :-0.4314385E+03  (-0.3526079E+03)
 number of electron     337.0000000 magnetization 
 augmentation part      337.0000000 magnetization 

 Free energy of the ion-electron system (eV)
  ---------------------------------------------------
  alpha Z        PSCENC =      1611.24600206
  Ewald energy   TEWEN  =    -22412.42134684
  -Hartree energ DENC   =     -6858.30464320
  -exchange      EXHF   =         0.00000000
  -V(xc)+E(xc)   XCENC  =       224.38040284
  PAW double counting   =     23474.76194546   -24095.12296225
  entropy T*S    EENTRO =        -0.03330829
  eigenvalues    EBANDS =      1970.76391332
  atomic energy  EATOM  =     25768.22672671
  Solvation  Ediel_sol  =         0.00000000
  ---------------------------------------------------
  free energy    TOTEN  =      -316.50327017 eV

  energy without entropy =     -316.46996189  energy(sigma->0) =     -316.49216741


--------------------------------------------------------------------------------------------------------




--------------------------------------- Iteration      1(   4)  ---------------------------------------


     EDDAV:  cpu time  159.0788: real time  160.6569
       DOS:  cpu time    0.0400: real time    0.0433
    --------------------------------------------
      LOOP:  cpu time  159.1188: real time  160.7003

 eigenvalue-minimisations  : 52992
 total energy-change (2. order) :-0.3216753E+02  (-0.3075409E+02)
 number of electron     337.0000000 magnetization 
 augmentation part      337.0000000 magnetization 

 Free energy of the ion-electron system (eV)
  ---------------------------------------------------
  alpha Z        PSCENC =      1611.24600206
  Ewald energy   TEWEN  =    -22412.42134684
  -Hartree energ DENC   =     -6858.30464320
  -exchange      EXHF   =         0.00000000
  -V(xc)+E(xc)   XCENC  =       224.38040284
  PAW double counting   =     23474.76194546   -24095.12296225
  entropy T*S    EENTRO =        -0.04461972
  eigenvalues    EBANDS =      1938.60769859
  atomic energy  EATOM  =     25768.22672671
  Solvation  Ediel_sol  =         0.00000000
  ---------------------------------------------------
  free energy    TOTEN  =      -348.67079634 eV

  energy without entropy =     -348.62617662  energy(sigma->0) =     -348.65592310


--------------------------------------------------------------------------------------------------------




--------------------------------------- Iteration      1(   5)  ---------------------------------------


     EDDAV:  cpu time  154.9194: real time  156.2400
       DOS:  cpu time    0.0370: real time    0.0397
    CHARGE:  cpu time    1.9627: real time    2.1004
    MIXING:  cpu time    0.0070: real time    0.0780
    --------------------------------------------
      LOOP:  cpu time  156.9261: real time  158.4572

 eigenvalue-minimisations  : 51288
 total energy-change (2. order) :-0.7995198E+00  (-0.7978788E+00)
 number of electron     337.0000098 magnetization 
 augmentation part      120.9014863 magnetization 

 Broyden mixing:
  rms(total) = 0.62996E+01    rms(broyden)= 0.62993E+01
  rms(prec ) = 0.74109E+01
  weight for this iteration     100.00

 Free energy of the ion-electron system (eV)
  ---------------------------------------------------
  alpha Z        PSCENC =      1611.24600206
  Ewald energy   TEWEN  =    -22412.42134684
  -Hartree energ DENC   =     -6858.30464320
  -exchange      EXHF   =         0.00000000
  -V(xc)+E(xc)   XCENC  =       224.38040284
  PAW double counting   =     23474.76194546   -24095.12296225
  entropy T*S    EENTRO =        -0.04465707
  eigenvalues    EBANDS =      1937.80821614
  atomic energy  EATOM  =     25768.22672671
  Solvation  Ediel_sol  =         0.00000000
  ---------------------------------------------------
  free energy    TOTEN  =      -349.47031614 eV

  energy without entropy =     -349.42565907  energy(sigma->0) =     -349.45543045


--------------------------------------------------------------------------------------------------------




--------------------------------------- Iteration      1(   6)  ---------------------------------------


    POTLOK:  cpu time    0.0640: real time    0.0746
    SETDIJ:  cpu time    0.0160: real time    0.0223
     EDDAV:  cpu time  175.8233: real time  177.3104
       DOS:  cpu time    0.0400: real time    0.0449
    CHARGE:  cpu time    1.7557: real time    1.7682
    MIXING:  cpu time    0.0110: real time    0.1614
    --------------------------------------------
      LOOP:  cpu time  177.7100: real time  179.3819

 eigenvalue-minimisations  : 60304
 total energy-change (2. order) :-0.2409025E+02  (-0.1590057E+02)
 number of electron     337.0000119 magnetization 
 augmentation part      163.1490856 magnetization 

 Broyden mixing:
  rms(total) = 0.11570E+02    rms(broyden)= 0.11570E+02
  rms(prec ) = 0.14640E+02
  weight for this iteration     100.00

 eigenvalues of (default mixing * dielectric matrix)
  average eigenvalue GAMMA=   0.2763
  0.2763

 Free energy of the ion-electron system (eV)
  ---------------------------------------------------
  alpha Z        PSCENC =      1611.24600206
  Ewald energy   TEWEN  =    -22412.42134684
  -Hartree energ DENC   =     -6191.52390561
  -exchange      EXHF   =         0.00000000
  -V(xc)+E(xc)   XCENC  =       196.56485458
  PAW double counting   =     26240.02311974   -26757.59975178
  entropy T*S    EENTRO =        -0.02365624
  eigenvalues    EBANDS =      1171.94738631
  atomic energy  EATOM  =     25768.22672671
  Solvation  Ediel_sol  =         0.00000000
  ---------------------------------------------------
  free energy    TOTEN  =      -373.56057107 eV

  energy without entropy =     -373.53691482  energy(sigma->0) =     -373.55268565


--------------------------------------------------------------------------------------------------------




--------------------------------------- Iteration      1(   7)  ---------------------------------------


    POTLOK:  cpu time    0.0780: real time    0.1039
    SETDIJ:  cpu time    0.0180: real time    0.0252
     EDDAV:  cpu time  175.6073: real time  177.0429
       DOS:  cpu time    0.0380: real time    0.0425
    CHARGE:  cpu time    1.8797: real time    1.8914
    MIXING:  cpu time    0.0220: real time    0.0828
    --------------------------------------------
      LOOP:  cpu time  177.6450: real time  179.1912

 eigenvalue-minimisations  : 60288
 total energy-change (2. order) : 0.1561623E+02  (-0.1077414E+02)
 number of electron     337.0000099 magnetization 
 augmentation part      147.8028814 magnetization 

 Broyden mixing:
  rms(total) = 0.79043E+01    rms(broyden)= 0.79037E+01
  rms(prec ) = 0.98513E+01
  weight for this iteration     100.00

 eigenvalues of (default mixing * dielectric matrix)
  average eigenvalue GAMMA=   0.3884
  0.6025  0.1743

 Free energy of the ion-electron system (eV)
  ---------------------------------------------------
  alpha Z        PSCENC =      1611.24600206
  Ewald energy   TEWEN  =    -22412.42134684
  -Hartree energ DENC   =     -6169.43437490
  -exchange      EXHF   =         0.00000000
  -V(xc)+E(xc)   XCENC  =       196.83916392
  PAW double counting   =     26851.87059905   -27375.85573312
  entropy T*S    EENTRO =         0.00977279
  eigenvalues    EBANDS =      1171.57484525
  atomic energy  EATOM  =     25768.22672671
  Solvation  Ediel_sol  =         0.00000000
  ---------------------------------------------------
  free energy    TOTEN  =      -357.94434509 eV

  energy without entropy =     -357.95411788  energy(sigma->0) =     -357.94760268


--------------------------------------------------------------------------------------------------------




--------------------------------------- Iteration      1(   8)  ---------------------------------------


    POTLOK:  cpu time    0.0760: real time    0.0941
    SETDIJ:  cpu time    0.0190: real time    0.0253
     EDDAV:  cpu time  184.6549: real time  186.2612
       DOS:  cpu time    0.0290: real time    0.0337
    CHARGE:  cpu time    1.8417: real time    1.8591
    MIXING:  cpu time    0.0070: real time    0.0303
    --------------------------------------------
      LOOP:  cpu time  186.6256: real time  188.3010

 eigenvalue-minimisations  : 64120
 total energy-change (2. order) : 0.2181692E+02  (-0.6432147E+01)
 number of electron     337.0000116 magnetization 
 augmentation part      144.2903220 magnetization 

[...]
    346      24.5968      0.00000
    347      24.9806      0.00000
    348      24.9894      0.00000
    349      25.0773      0.00000
    350      25.0858      0.00000
    351      25.1385      0.00000
    352      25.1480      0.00000
    353      25.3752      0.00000
    354      25.3852      0.00000
    355      25.4550      0.00000
    356      25.4596      0.00000
    357      25.7069      0.00000
    358      25.7131      0.00000
    359      25.8399      0.00000
    360      25.8418      0.00000


--------------------------------------------------------------------------------------------------------


 soft charge-density along one line, spin component           1
         0         1         2         3         4         5         6         7         8         9
 total charge-density along one line
 
 pseudopotential strength for first ion, spin component:           1
 -4.414   0.034   0.001  -0.000  -0.001  -4.989   0.034   0.001
  0.034  -4.422  -0.001  -0.002   0.000   0.034  -4.997  -0.001
  0.001  -0.001  -4.417   0.040   0.039   0.001  -0.001  -4.992
 -0.000  -0.002   0.040  -4.445   0.058  -0.000  -0.002   0.040
 -0.001   0.000   0.039   0.058  -4.417  -0.001   0.000   0.039
 -4.989   0.034   0.001  -0.000  -0.001  -5.540   0.033   0.001
  0.034  -4.997  -0.001  -0.002   0.000   0.033  -5.548  -0.001
  0.001  -0.001  -4.992   0.040   0.039   0.001  -0.001  -5.542
 -0.000  -0.002   0.040  -5.019   0.057  -0.000  -0.002   0.039
 -0.001   0.000   0.039   0.057  -4.992  -0.001   0.000   0.038
  0.000   0.000   0.002  -0.016   0.008   0.000   0.000   0.002
  0.001   0.000   0.004  -0.031   0.016   0.001   0.000   0.004
  0.011  -0.008   0.000  -0.000   0.000   0.011  -0.008   0.000
 -0.000  -0.000  -0.010   0.002  -0.002  -0.000  -0.000  -0.010
 -0.000  -0.000  -0.007  -0.011   0.003  -0.000  -0.000  -0.007
  0.012  -0.009   0.000  -0.000   0.000   0.012  -0.009   0.000
 -0.000  -0.000  -0.012   0.003  -0.002  -0.000  -0.000  -0.011
 -0.000  -0.000  -0.008  -0.013   0.005  -0.000  -0.000  -0.008
 total augmentation occupancy for first ion, spin component:           1
  1.837  -0.407  -0.002   0.004  -0.010  -1.203   0.291   0.000  -0.002   0.003  -0.000   0.000  -0.073   0.000  -0.001   0.012
 -0.407   1.116  -0.009  -0.007  -0.001   0.281  -0.622   0.002   0.003  -0.000  -0.001   0.000  -0.025  -0.000   0.000   0.001
 -0.002  -0.009   1.793   0.365   0.349   0.000   0.002  -0.867  -0.226  -0.162   0.087  -0.026   0.001   0.008   0.090  -0.000
  0.004  -0.007   0.365   1.658   0.286  -0.001   0.003  -0.228  -0.905  -0.107   0.117  -0.024  -0.001   0.065   0.069   0.000
 -0.010  -0.001   0.349   0.286   1.555   0.003  -0.000  -0.170  -0.113  -0.698  -0.042  -0.002  -0.001   0.035  -0.021  -0.000
 -1.203   0.281   0.000  -0.001   0.003   1.794  -0.265   0.000   0.001  -0.001   0.000   0.000   0.109  -0.000   0.001  -0.005
  0.291  -0.622   0.002   0.003  -0.000  -0.265   1.122  -0.001  -0.002   0.000   0.000   0.000   0.016   0.000  -0.000  -0.002
  0.000   0.002  -0.867  -0.228  -0.170   0.000  -0.001   1.173   0.217   0.106  -0.082   0.022  -0.000  -0.010  -0.115   0.000
 -0.002   0.003  -0.226  -0.905  -0.113   0.001  -0.002   0.217   1.316   0.049  -0.093   0.009   0.000  -0.076  -0.092  -0.000
  0.003  -0.000  -0.162  -0.107  -0.698  -0.001   0.000   0.106   0.049   0.973   0.029   0.004   0.000  -0.049   0.004   0.000
 -0.000  -0.001   0.087   0.117  -0.042   0.000   0.000  -0.082  -0.093   0.029   1.863  -0.242   0.000  -0.028   0.039   0.000
  0.000   0.000  -0.026  -0.024  -0.002   0.000   0.000   0.022   0.009   0.004  -0.242   0.036   0.000   0.004  -0.005   0.000
 -0.073  -0.025   0.001  -0.001  -0.001   0.109   0.016  -0.000   0.000   0.000   0.000   0.000   0.182  -0.000   0.000  -0.012
  0.000  -0.000   0.008   0.065   0.035  -0.000   0.000  -0.010  -0.076  -0.049  -0.028   0.004  -0.000   0.197  -0.006   0.000
 -0.001   0.000   0.090   0.069  -0.021   0.001  -0.000  -0.115  -0.092   0.004   0.039  -0.005   0.000  -0.006   0.197  -0.000
  0.012   0.001  -0.000   0.000  -0.000  -0.005  -0.002   0.000  -0.000   0.000   0.000   0.000  -0.012   0.000  -0.000   0.001
  0.000   0.000  -0.004  -0.009  -0.006  -0.000  -0.000   0.001   0.007   0.004   0.002  -0.000   0.000  -0.013   0.001  -0.000
  0.000   0.000  -0.015  -0.009  -0.001  -0.000  -0.000   0.008   0.005   0.001  -0.002   0.000  -0.000   0.001  -0.013   0.000


------------------------ aborting loop because EDIFF is reached ----------------------------------------


    CHARGE:  cpu time    1.8067: real time    1.8185
    FORLOC:  cpu time    0.0200: real time    0.0198
    FORNL :  cpu time   47.9397: real time   48.1135
    STRESS:  cpu time   84.7121: real time   85.0464
    FORCOR:  cpu time    0.0970: real time    0.1100
    FORHAR:  cpu time    0.0300: real time    0.0309
    MIXING:  cpu time    0.0070: real time    0.0085
    OFIELD:  cpu time    0.0000: real time    0.0013

  FORCE on cell =-STRESS in cart. coord.  units (eV):
  Direction    XX          YY          ZZ          XY          YZ          ZX
  --------------------------------------------------------------------------------------
  Alpha Z  1612.41941  1612.41941  1612.41941
  Ewald   -7710.75615 -7121.62276 -7585.58406    -0.00000     0.00000     0.12880
  Hartree  2054.72387  2334.87644  1958.41271    -0.00000    -0.00000    -0.32748
  E(xc)   -1640.92288 -1645.72241 -1641.30101     0.00000    -0.00000    -0.05109
  Local    -292.86157 -1134.03828  -294.23122     0.00000     0.00000    -0.37462
  n-local  -266.21778  -248.35582  -247.85940     0.17018    -0.10696    -0.39993
  augment  3315.30591  3314.67979  3295.48230     0.00000     0.00000     0.39867
  Kinetic  2905.42270  2906.95873  2906.72448    -0.62714     0.13280     0.59219
  Fock        0.00000     0.00000     0.00000     0.00000     0.00000     0.00000
  -------------------------------------------------------------------------------------
  Total     -22.88649    19.19510     4.06322     0.00000     0.00000    -0.03345
  in kB     -61.56079    51.63158    10.92937     0.00000     0.00000    -0.08997
  external pressure =        0.33 kB  Pullay stress =        0.00 kB


 VOLUME and BASIS-vectors are now :
 -----------------------------------------------------------------------------
  energy-cutoff  :      450.00
  volume of cell :      595.64
      direct lattice vectors                 reciprocal lattice vectors
    11.810133461  0.000000000  0.000000000     0.084673048  0.000000000  0.000000000
     0.000000000  7.296169031  0.000000000     0.000000000  0.137058228  0.000000000
     0.000000000  0.000000000  6.912512181     0.000000000  0.000000000  0.144665206

  length of vectors
    11.810133461  7.296169031  6.912512181     0.084673048  0.137058228  0.144665206


 FORCES acting on ions
    electron-ion (+dipol)            ewald-force                    non-local-force                 convergence-correction
 -----------------------------------------------------------------------------------------------
   0.106E+02 0.105E+01 0.370E+02   -.109E+02 -.105E+01 -.369E+02   -.239E+00 0.836E-02 0.108E+00   0.626E-02 -.497E-02 -.193E-01
   0.106E+02 -.105E+01 0.370E+02   -.109E+02 0.105E+01 -.369E+02   -.239E+00 -.836E-02 0.108E+00   0.626E-02 0.497E-02 -.193E-01
   0.697E+01 0.511E+01 -.318E+02   -.726E+01 -.516E+01 0.317E+02   -.205E+00 0.169E-01 -.476E-01   0.740E-02 0.440E-02 -.237E-01
   0.697E+01 -.511E+01 -.318E+02   -.726E+01 0.516E+01 0.317E+02   -.205E+00 -.169E-01 -.476E-01   0.740E-02 -.440E-02 -.237E-01
   0.134E+01 0.134E+01 0.370E+02   -.162E+01 -.133E+01 -.369E+02   -.217E+00 -.114E-01 0.109E+00   -.980E-02 -.122E-01 0.934E-02
   0.134E+01 -.134E+01 0.370E+02   -.162E+01 0.133E+01 -.369E+02   -.217E+00 0.114E-01 0.109E+00   -.980E-02 0.122E-01 0.934E-02
   0.574E+01 0.307E+00 -.368E+02   -.601E+01 -.288E+00 0.367E+02   -.211E+00 0.670E-03 -.983E-01   -.256E-02 -.181E-01 0.304E-01
   0.574E+01 -.307E+00 -.368E+02   -.601E+01 0.288E+00 0.367E+02   -.211E+00 -.670E-03 -.983E-01   -.256E-02 0.181E-01 0.304E-01
   -.613E+01 -.220E-12 0.370E+02   0.639E+01 -.428E-13 -.369E+02   0.208E+00 0.000E+00 0.893E-01   0.130E-01 0.244E-13 -.297E-01
   -.125E+01 0.932E-13 -.377E+02   0.156E+01 0.144E-13 0.376E+02   0.189E+00 0.000E+00 -.101E+00   -.536E-02 0.230E-13 -.398E-02
   -.614E+01 0.249E-13 0.369E+02   0.639E+01 -.107E-13 -.369E+02   0.210E+00 0.000E+00 0.109E+00   -.124E-01 0.286E-13 0.219E-01
   -.110E+02 0.629E-13 -.377E+02   0.112E+02 -.274E-13 0.376E+02   0.210E+00 0.000E+00 -.823E-01   0.335E-02 0.226E-13 0.347E-03
   -.614E+01 -.261E-12 0.370E+02   0.639E+01 -.424E-13 -.369E+02   0.208E+00 0.000E+00 0.128E+00   0.255E-01 0.201E-13 -.317E-01
   0.402E+01 0.848E-12 -.393E+02   -.387E+01 0.134E-13 0.393E+02   0.239E+00 0.000E+00 -.119E+00   0.148E-01 0.209E-13 -.819E-03
   -.163E+02 0.129E-11 -.393E+02   0.167E+02 -.207E-13 0.393E+02   0.184E+00 0.000E+00 -.155E+00   -.200E-01 0.169E-13 0.755E-02
   0.814E+02 0.156E+01 -.409E+02   -.812E+02 -.153E+01 0.418E+02   -.105E+00 0.237E-02 -.466E+00   -.228E-01 -.257E-01 0.364E-01
   0.814E+02 -.156E+01 -.409E+02   -.812E+02 0.153E+01 0.418E+02   -.105E+00 -.237E-02 -.466E+00   -.228E-01 0.257E-01 0.364E-01
   0.823E+02 0.989E+01 0.322E+02   -.821E+02 -.995E+01 -.332E+02   -.964E-01 -.197E-02 0.437E+00   -.117E-01 0.908E-02 -.153E-02
   0.823E+02 -.989E+01 0.322E+02   -.821E+02 0.995E+01 -.332E+02   -.964E-01 0.197E-02 0.437E+00   -.117E-01 -.908E-02 -.153E-02
   0.609E+02 0.887E+01 -.373E+02   -.607E+02 -.891E+01 0.383E+02   -.129E+00 0.628E-01 -.436E+00   0.616E-02 -.179E-01 -.211E-01
   0.609E+02 -.887E+01 -.373E+02   -.607E+02 0.891E+01 0.383E+02   -.129E+00 -.628E-01 -.436E+00   0.616E-02 0.179E-01 -.211E-01
   0.719E+02 0.620E+00 0.411E+02   -.717E+02 -.591E+00 -.421E+02   -.121E+00 0.149E-01 0.454E+00   0.753E-02 -.445E-01 -.129E-02
   0.719E+02 -.620E+00 0.411E+02   -.717E+02 0.591E+00 -.421E+02   -.121E+00 -.149E-01 0.454E+00   0.753E-02 0.445E-01 -.129E-02
   -.728E+02 -.212E-12 -.418E+02   0.726E+02 0.426E-13 0.428E+02   0.114E+00 0.000E+00 -.468E+00   0.168E-01 0.610E-13 -.146E-01
   -.681E+02 0.473E-12 0.435E+02   0.679E+02 0.334E-13 -.446E+02   0.133E+00 0.000E+00 0.455E+00   -.254E-01 0.255E-13 0.253E-01
   -.776E+02 0.126E-12 -.438E+02   0.774E+02 0.528E-13 0.448E+02   0.113E+00 0.000E+00 -.458E+00   -.853E-02 0.620E-13 0.489E-02
   -.801E+02 0.386E-12 0.424E+02   0.799E+02 0.181E-13 -.434E+02   0.130E+00 0.000E+00 0.457E+00   0.445E-01 0.133E-13 0.997E-03
   -.723E+02 -.436E-12 -.420E+02   0.721E+02 0.427E-13 0.430E+02   0.110E+00 0.000E+00 -.491E+00   0.321E-01 0.433E-13 0.123E-01
   -.577E+02 -.270E-11 0.505E+02   0.575E+02 0.186E-13 -.515E+02   0.121E+00 0.000E+00 0.519E+00   -.493E-02 0.114E-13 0.282E-01
   -.815E+02 0.130E-11 -.538E+02   0.814E+02 0.381E-13 0.548E+02   0.176E+00 0.000E+00 -.450E+00   -.360E-01 0.458E-13 0.774E-02
   -.830E+02 -.598E-11 0.434E+02   0.828E+02 0.532E-14 -.444E+02   0.143E+00 0.000E+00 0.454E+00   0.227E-01 0.459E-14 -.360E-01
   -.323E+02 0.352E+00 0.152E+02   0.332E+02 -.340E+00 -.148E+02   -.777E+00 0.663E-02 -.798E+00   0.213E-01 -.126E-01 -.199E-01
   -.323E+02 -.352E+00 0.152E+02   0.332E+02 0.340E+00 -.148E+02   -.777E+00 -.663E-02 -.798E+00   0.213E-01 0.126E-01 -.199E-01
   -.273E+02 0.598E+01 -.141E+02   0.282E+02 -.607E+01 0.137E+02   -.607E+00 0.199E+00 0.849E+00   -.108E-01 0.271E-02 0.206E-01
   -.273E+02 -.598E+01 -.141E+02   0.282E+02 0.607E+01 0.137E+02   -.607E+00 -.199E+00 0.849E+00   -.108E-01 -.271E-02 0.206E-01
   -.386E+02 0.442E+01 0.121E+02   0.396E+02 -.444E+01 -.117E+02   -.840E+00 0.753E-01 -.859E+00   -.151E-01 -.526E-02 0.162E-01
   -.386E+02 -.442E+01 0.121E+02   0.396E+02 0.444E+01 -.117E+02   -.840E+00 -.753E-01 -.859E+00   -.151E-01 0.526E-02 0.162E-01
   -.362E+02 0.470E+00 -.153E+02   0.371E+02 -.450E+00 0.149E+02   -.778E+00 0.492E-04 0.796E+00   0.148E-01 -.248E-01 -.190E-01
   -.362E+02 -.470E+00 -.153E+02   0.371E+02 0.450E+00 0.149E+02   -.778E+00 -.492E-04 0.796E+00   0.148E-01 0.248E-01 -.190E-01
   0.354E+02 0.204E-12 0.155E+02   -.363E+02 0.207E-13 -.152E+02   0.772E+00 0.000E+00 -.796E+00   -.179E-01 -.424E-14 0.215E-01
   0.359E+02 0.760E-13 -.157E+02   -.368E+02 0.253E-13 0.154E+02   0.783E+00 0.000E+00 0.781E+00   0.522E-02 -.147E-14 -.207E-01
   0.320E+02 -.528E-13 0.165E+02   -.329E+02 -.143E-13 -.161E+02   0.785E+00 0.000E+00 -.800E+00   0.555E-02 -.612E-14 -.149E-01
   0.325E+02 0.160E-12 -.155E+02   -.335E+02 -.218E-13 0.151E+02   0.774E+00 0.000E+00 0.793E+00   -.590E-02 -.162E-14 0.165E-01
   0.359E+02 0.169E-12 0.157E+02   -.368E+02 0.231E-13 -.153E+02   0.783E+00 0.000E+00 -.799E+00   -.881E-02 -.450E-14 0.105E-01
   0.374E+02 -.850E-12 -.167E+02   -.383E+02 0.278E-13 0.164E+02   0.753E+00 0.000E+00 0.821E+00   0.108E-01 -.106E-14 -.222E-01
   0.284E+02 0.143E-11 0.213E+02   -.292E+02 -.108E-13 -.210E+02   0.656E+00 0.000E+00 -.608E+00   -.578E-02 -.104E-13 -.156E-01
   0.321E+02 0.929E-12 -.156E+02   -.331E+02 -.202E-13 0.152E+02   0.777E+00 0.000E+00 0.797E+00   -.329E-02 -.391E-14 0.254E-01
   -.697E+01 -.288E-11 0.423E+02   0.730E+01 0.230E-13 -.422E+02   0.392E-01 0.000E+00 -.191E+00   -.238E-01 0.276E-13 0.257E-01
 -----------------------------------------------------------------------------------------------
   0.417E-01 0.256E-10 -.104E-01   -.178E-12 0.163E-12 0.426E-13   -.396E-01 0.000E+00 -.219E-01   -.275E-02 0.885E-12 0.328E-01
 
 
 POSITION                                       TOTAL-FORCE (eV/Angst)
 -----------------------------------------------------------------------------------
      2.85687      1.82404      1.23250        -0.495990      0.005477      0.152573
      2.85687      5.47213      1.23250        -0.495990     -0.005477      0.152573
      5.80940      1.82404      2.22376        -0.487298     -0.031186     -0.167117
      5.80940      5.47213      2.22376        -0.487298      0.031186     -0.167117
      8.76194      1.82404      1.23250        -0.498904     -0.008291      0.160479
      8.76194      5.47213      1.23250        -0.498904      0.008291      0.160479
     11.71447      1.82404      2.22376        -0.486149      0.001366     -0.154977
     11.71447      5.47213      2.22376        -0.486149     -0.001366     -0.154977
      0.09566      0.00000      4.68876         0.480472      0.000000      0.141266
      3.04820      0.00000      5.68001         0.494191      0.000000     -0.160667
      6.00073      0.00000      4.68876         0.453608      0.000000      0.155564
      8.95326      0.00000      5.68001         0.483378      0.000000     -0.146095
      0.09566      3.64808      4.68876         0.481082      0.000000      0.163863
      3.04820      3.64808      5.68001         0.398875      0.000000     -0.154918
      8.95326      3.64808      5.68001         0.535299      0.000000     -0.156876
      2.08685      1.82404      3.82469         0.096924      0.005200      0.550297
      2.08685      5.47213      3.82469         0.096924     -0.005200      0.550297
      5.03938      1.82404      6.54408         0.088091     -0.051796     -0.554574
      5.03938      5.47213      6.54408         0.088091      0.051796     -0.554574
      7.99192      1.82404      3.82469         0.107579      0.001801      0.549891
      7.99192      5.47213      3.82469         0.107579     -0.001801      0.549891
     10.94445      1.82404      6.54408         0.087970     -0.000701     -0.549745
     10.94445      5.47213      6.54408         0.087970      0.000701     -0.549745
      0.86568      0.00000      0.36844        -0.086322      0.000000      0.550851
      3.81822      0.00000      3.08782        -0.083459      0.000000     -0.564176
      6.77075      0.00000      0.36844        -0.109576      0.000000      0.553117
      9.72328      0.00000      3.08782        -0.066708      0.000000     -0.553309
      0.86568      3.64808      0.36844        -0.077952      0.000000      0.533620
      3.81822      3.64808      3.08782        -0.110269      0.000000     -0.498165
      6.77075      3.64808      0.36844        -0.007252      0.000000      0.581353
      9.72328      3.64808      3.08782        -0.101298      0.000000     -0.524566
      1.47922      1.82404      6.07126         0.156839      0.006515     -0.431863
      1.47922      5.47213      6.07126         0.156839     -0.006515     -0.431863
      4.43175      1.82404      4.29751         0.298702      0.116944      0.483935
      4.43175      5.47213      4.29751         0.298702     -0.116944      0.483935
      7.38429      1.82404      6.07126         0.114197      0.050655     -0.461605
      7.38429      5.47213      6.07126         0.114197     -0.050655     -0.461605
     10.33682      1.82404      4.29751         0.152118     -0.004730      0.434011
     10.33682      5.47213      4.29751         0.152118      0.004730      0.434011
      1.47331      0.00000      2.61500        -0.151336      0.000000     -0.439817
      4.42585      0.00000      0.84125        -0.145123      0.000000      0.417016
      7.37838      0.00000      2.61500        -0.168706      0.000000     -0.417299
     10.33091      0.00000      0.84125        -0.158444      0.000000      0.440941
      1.47331      3.64808      2.61500        -0.147877      0.000000     -0.430902
      4.42585      3.64808      0.84125        -0.140237      0.000000      0.450345
      7.37838      3.64808      2.61500        -0.228070      0.000000     -0.375866
     10.33091      3.64808      0.84125        -0.159953      0.000000      0.427059
      6.00073      3.64808      4.68876         0.347518      0.000000     -0.014948
 -----------------------------------------------------------------------------------
    total drift:                               -0.000568      0.000000      0.000512


--------------------------------------------------------------------------------------------------------



  FREE ENERGIE OF THE ION-ELECTRON SYSTEM (eV)
  ---------------------------------------------------
  free  energy   TOTEN  =      -301.55289604 eV

  energy  without entropy=     -301.54616105  energy(sigma->0) =     -301.55065104
 
 d Force = 0.0000000E+00[ 0.000E+00, 0.000E+00]  d Energy = 0.5607715E-03-0.561E-03
 d Force = 0.0000000E+00[ 0.000E+00, 0.000E+00]  d Ewald  =-0.1076269E+02 0.108E+02


--------------------------------------------------------------------------------------------------------


    POTLOK:  cpu time    0.0830: real time    0.0944


--------------------------------------------------------------------------------------------------------




--------------------------------------------------------------------------------------------------------


  
 reached required accuracy - stopping structural energy minimisation
 writing wavefunctions
     LOOP+:  cpu time 2403.4006: real time 2424.0503
    4ORBIT:  cpu time    0.0000: real time    0.0000

 total amount of memory used by VASP MPI-rank0   315872. kBytes
=======================================================================

   base      :      30000. kBytes
   nonl-proj :      76732. kBytes
   fftplans  :       3318. kBytes
   grid      :       6287. kBytes
   one-center:        124. kBytes
   wavefun   :     199411. kBytes
 
  
  
 General timing and accounting informations for this job:
 ========================================================
  
                  Total CPU time used (sec):    11485.969
                            User time (sec):    11402.813
                          System time (sec):       83.156
                         Elapsed time (sec):    11592.769
  
                   Maximum memory used (kb):      399624.
                   Average memory used (kb):           0.
  
                          Minor page faults:      1671361
                          Major page faults:          521
                 Voluntary context switches:       854287
