 running on   24 total cores
 distrk:  each k-point on   24 cores,    1 groups
 distr:  one band on    6 cores,    4 groups
 using from now: INCAR     
 vasp.6.1.1 19Jun20 (build Nov 30 2020 11:51:22) complex                        
  
 POSCAR found type information on POSCAR NiGeMnFe
 POSCAR found :  4 types and      48 ions
 scaLAPACK will be used
 -----------------------------------------------------------------------------
|                                                                             |
|               ----> ADVICE to this user running VASP <----                  |
|                                                                             |
|     You have a (more or less) 'large supercell' and for larger cells it     |
|     might be more efficient to use real-space projection operators.         |
|     Therefore, try LREAL= Auto in the INCAR file.                           |
|     Mind: For very accurate calculation, you might also keep the            |
|     reciprocal projection scheme (i.e. LREAL=.FALSE.).                      |
|                                                                             |
 -----------------------------------------------------------------------------

 LDA part: xc-table for Pade appr. of Perdew
 POSCAR, INCAR and KPOINTS ok, starting setup
 FFT: planning ...
 WAVECAR not read
 entering main loop
       N       E                     dE             d eps       ncg     rms          rms(c)
DAV:   1     0.278110999215E+04    0.27811E+04   -0.10099E+05 49680   0.101E+03
DAV:   2     0.121161160367E+03   -0.26599E+04   -0.23690E+04 49680   0.270E+02
DAV:   3    -0.312804899453E+03   -0.43397E+03   -0.35229E+03 49712   0.125E+02
DAV:   4    -0.345622560432E+03   -0.32818E+02   -0.31272E+02 60896   0.408E+01
DAV:   5    -0.346446274618E+03   -0.82371E+00   -0.82186E+00 60152   0.673E+00    0.621E+01
DAV:   6    -0.348950671763E+03   -0.25044E+01   -0.15421E+02 67232   0.744E+01    0.756E+01
DAV:   7    -0.360039414250E+03   -0.11089E+02   -0.96503E+01 62928   0.116E+02    0.794E+01
DAV:   8    -0.324247299229E+03    0.35792E+02   -0.44819E+01 70240   0.464E+01    0.573E+01
DAV:   9    -0.314819288965E+03    0.94280E+01   -0.14026E+01 76208   0.302E+01    0.416E+01
DAV:  10    -0.322821892285E+03   -0.80026E+01   -0.11800E+01 70896   0.272E+01    0.546E+01
DAV:  11    -0.307115192865E+03    0.15707E+02   -0.62252E+00 68808   0.230E+01    0.203E+01
DAV:  12    -0.305830941079E+03    0.12843E+01   -0.35332E+00 79592   0.934E+00    0.139E+01
DAV:  13    -0.305626112237E+03    0.20483E+00   -0.14898E+00 70224   0.691E+00    0.117E+01
DAV:  14    -0.305376190868E+03    0.24992E+00   -0.54766E-01 67288   0.450E+00    0.969E+00
DAV:  15    -0.305351661329E+03    0.24530E-01   -0.38175E-01 68536   0.558E+00    0.939E+00
DAV:  16    -0.305432517430E+03   -0.80856E-01   -0.66971E-01 69376   0.543E+00    0.124E+01
DAV:  17    -0.304988074583E+03    0.44444E+00   -0.62568E-01 70472   0.390E+00    0.395E+00
DAV:  18    -0.304923126898E+03    0.64948E-01   -0.90887E-02 70232   0.196E+00    0.157E+00
DAV:  19    -0.304940789410E+03   -0.17663E-01   -0.61245E-02 63592   0.250E+00    0.238E+00
DAV:  20    -0.304919210308E+03    0.21579E-01   -0.40606E-02 63760   0.203E+00    0.154E+00
DAV:  21    -0.304913507228E+03    0.57031E-02   -0.93321E-03 84936   0.714E-01    0.108E+00
DAV:  22    -0.304909663798E+03    0.38434E-02   -0.38402E-03 63888   0.537E-01    0.670E-01
DAV:  23    -0.304907971942E+03    0.16919E-02   -0.19997E-03 70536   0.241E-01    0.410E-01
DAV:  24    -0.304907494121E+03    0.47782E-03   -0.87310E-04 84352   0.112E-01    0.193E-01
DAV:  25    -0.304907423088E+03    0.71033E-04   -0.14685E-04 72856   0.516E-02    0.124E-01
DAV:  26    -0.304907366338E+03    0.56750E-04   -0.25835E-05 81928   0.321E-02    0.536E-02
DAV:  27    -0.304907355724E+03    0.10614E-04   -0.27565E-05 74464   0.150E-02    0.170E-02
DAV:  28    -0.304907355587E+03    0.13713E-06   -0.32176E-06 40240   0.874E-03
   1 F= -.30490736E+03 E0= -.30487483E+03  d E =-.975814E-01
