 vasp.6.1.1 19Jun20 (build Nov 30 2020 11:51:22) complex                        
  
 executed on             LinuxIFC date 2021.03.24  09:13:59
 running on   24 total cores
 distrk:  each k-point on   24 cores,    1 groups
 distr:  one band on NCORE=   6 cores,    4 groups


--------------------------------------------------------------------------------------------------------


 INCAR:
 POTCAR:    PAW_PBE Ni 02Aug2007                  
 POTCAR:    PAW_PBE Ge 05Jan2001                  
 POTCAR:    PAW_PBE Mn 06Sep2000                  
 POTCAR:    PAW_PBE Fe 06Sep2000                  
 POTCAR:    PAW_PBE Ni 02Aug2007                  
   SHA256 =  0534bc51ca8003dfef23f56753fef9fdd3e22eac8d719fccacb59f3e6b7a69c7 Ni/POTCAR             
   COPYR  = (c) Copyright 02Aug2007 Georg Kresse                                                    
   COPYR  = This file is part of the software VASP. Any use, copying, and all other rights are regul
   COPYR  = If you do not have a valid VASP license, you may not use, copy or distribute this file. 
   VRHFIN =Ni:                                                                                      
   LEXCH  = PE                                                                                      
   EATOM  =  1077.6739 eV,   79.2068 Ry                                                             
                                                                                                    
   TITEL  = PAW_PBE Ni 02Aug2007                                                                    
   LULTRA =        F    use ultrasoft PP ?                                                          
   IUNSCR =        1    unscreen: 0-lin 1-nonlin 2-no                                               
   RPACOR =    2.000    partial core radius                                                         
   POMASS =   58.690; ZVAL   =   10.000    mass and valenz                                          
   RCORE  =    2.300    outmost cutoff radius                                                       
   RWIGS  =    2.430; RWIGS  =    1.286    wigner-seitz radius (au A)                               
   ENMAX  =  269.532; ENMIN  =  202.149 eV                                                          
   RCLOC  =    1.201    cutoff for local pot                                                        
   LCOR   =        T    correct aug charges                                                         
   LPAW   =        T    paw PP                                                                      
   EAUG   =  544.565                                                                                
   DEXC   =    0.000                                                                                
   RMAX   =    2.357    core radius for proj-oper                                                   
   RAUG   =    1.300    factor for augmentation sphere                                              
   RDEP   =    2.390    radius for radial grids                                                     
   RDEPT  =    1.838    core radius for aug-charge                                                  
                                                                                                    
   Atomic configuration                                                                             
    9 entries                                                                                       
     n  l   j            E        occ.                                                              
     1  0  0.50     -8206.4253   2.0000                                                             
     2  0  0.50      -976.1748   2.0000                                                             
     2  1  1.50      -839.0571   6.0000                                                             
     3  0  0.50      -105.9991   2.0000                                                             
     3  1  1.50       -66.4603   6.0000                                                             
     3  2  2.50        -4.6458   9.0000                                                             
     4  0  0.50        -4.4926   1.0000                                                             
     4  1  1.50        -4.0817   0.0000                                                             
     4  3  2.50        -1.3606   0.0000                                                             
   Description                                                                                      
     l       E           TYP  RCUT    TYP  RCUT                                                     
     2     -4.6457903     23  2.300                                                                 
     2     -6.0063729     23  2.300                                                                 
     0     -4.4925590     23  2.300                                                                 
     0      5.0102601     23  2.300                                                                 
     1     -2.7211652     23  2.300                                                                 
     1     16.5183231     23  2.300                                                                 
  local pseudopotential read in
  partial core-charges read in
  partial kinetic energy density read in
  atomic valenz-charges read in
  non local Contribution for L=           2  read in
    real space projection operators read in
  non local Contribution for L=           2  read in
    real space projection operators read in
  non local Contribution for L=           0  read in
    real space projection operators read in
  non local Contribution for L=           0  read in
    real space projection operators read in
  non local Contribution for L=           1  read in
    real space projection operators read in
  non local Contribution for L=           1  read in
    real space projection operators read in
    PAW grid and wavefunctions read in
 
   number of l-projection  operators is LMAX  =           6
   number of lm-projection operators is LMMAX =          18
 
 POTCAR:    PAW_PBE Ge 05Jan2001                  
   SHA256 =  7ff11deedcda39f1950abeda971a84a1f98a719a97bc9679a0df455c008734f8 Ge/POTCAR             
   COPYR  = (c) Copyright 05Jan2001 Georg Kresse                                                    
   COPYR  = This file is part of the software VASP. Any use, copying, and all other rights are regul
   COPYR  = If you do not have a valid VASP license, you may not use, copy or distribute this file. 
   VRHFIN =Ge: s2p2                                                                                 
   LEXCH  = PE                                                                                      
   EATOM  =   104.9960 eV,    7.7170 Ry                                                             
                                                                                                    
   TITEL  = PAW_PBE Ge 05Jan2001                                                                    
   LULTRA =        F    use ultrasoft PP ?                                                          
   IUNSCR =        1    unscreen: 0-lin 1-nonlin 2-no                                               
   RPACOR =    2.170    partial core radius                                                         
   POMASS =   72.610; ZVAL   =    4.000    mass and valenz                                          
   RCORE  =    2.300    outmost cutoff radius                                                       
   RWIGS  =    2.300; RWIGS  =    1.217    wigner-seitz radius (au A)                               
   ENMAX  =  173.807; ENMIN  =  130.355 eV                                                          
   ICORE  =        3    local potential                                                             
   LCOR   =        T    correct aug charges                                                         
   LPAW   =        T    paw PP                                                                      
   EAUG   =  385.843                                                                                
   DEXC   =    0.000                                                                                
   RMAX   =    2.342    core radius for proj-oper                                                   
   RAUG   =    1.300    factor for augmentation sphere                                              
   RDEP   =    2.318    radius for radial grids                                                     
   RDEPT  =    2.103    core radius for aug-charge                                                  
                                                                                                    
   Atomic configuration                                                                             
   10 entries                                                                                       
     n  l   j            E        occ.                                                              
     1  0  0.50    -10959.8463   2.0000                                                             
     2  0  0.50     -1371.6056   2.0000                                                             
     2  1  1.50     -1198.4791   6.0000                                                             
     3  0  0.50      -168.4733   2.0000                                                             
     3  1  1.50      -115.6019   6.0000                                                             
     3  2  2.50       -29.3106  10.0000                                                             
     4  0  0.50       -11.7309   2.0000                                                             
     4  1  0.50        -3.8952   2.0000                                                             
     4  2  1.50        -4.0817   0.0000                                                             
     4  3  2.50        -4.0817   0.0000                                                             
   Description                                                                                      
     l       E           TYP  RCUT    TYP  RCUT                                                     
     0    -11.7309493     23  2.300                                                                 
     0     -7.4578696     23  2.300                                                                 
     1     -3.8952261     23  2.300                                                                 
     1      6.1178114     23  2.300                                                                 
     2     -4.0817478     23  2.300                                                                 
     3     -1.3605826      7  2.300                                                                 
  local pseudopotential read in
  partial core-charges read in
  partial kinetic energy density read in
  atomic valenz-charges read in
  non local Contribution for L=           0  read in
    real space projection operators read in
  non local Contribution for L=           0  read in
    real space projection operators read in
  non local Contribution for L=           1  read in
    real space projection operators read in
  non local Contribution for L=           1  read in
    real space projection operators read in
  non local Contribution for L=           2  read in
    real space projection operators read in
    PAW grid and wavefunctions read in
 
   number of l-projection  operators is LMAX  =           5
   number of lm-projection operators is LMMAX =          13
 
 POTCAR:    PAW_PBE Mn 06Sep2000                  
   SHA256 =  791c87526310ff945dc83749a51ee60ee299d345ff72743aeb14609b9ed68bfc Mn/POTCAR             
   COPYR  = (c) Copyright 06Sep2000 Georg Kresse                                                    
   COPYR  = This file is part of the software VASP. Any use, copying, and all other rights are regul
   COPYR  = If you do not have a valid VASP license, you may not use, copy or distribute this file. 
   VRHFIN =Mn: d6 s1                                                                                
   LEXCH  = PE                                                                                      
   EATOM  =   416.7541 eV,   30.6306 Ry                                                             
                                                                                                    
   TITEL  = PAW_PBE Mn 06Sep2000                                                                    
   LULTRA =        F    use ultrasoft PP ?                                                          
   IUNSCR =        1    unscreen: 0-lin 1-nonlin 2-no                                               
   RPACOR =    2.000    partial core radius                                                         
   POMASS =   54.938; ZVAL   =    7.000    mass and valenz                                          
   RCORE  =    2.300    outmost cutoff radius                                                       
   RWIGS  =    2.500; RWIGS  =    1.323    wigner-seitz radius (au A)                               
   ENMAX  =  269.864; ENMIN  =  202.398 eV                                                          
   RCLOC  =    1.725    cutoff for local pot                                                        
   LCOR   =        T    correct aug charges                                                         
   LPAW   =        T    paw PP                                                                      
   EAUG   =  500.711                                                                                
   DEXC   =    0.000                                                                                
   RMAX   =    2.343    core radius for proj-oper                                                   
   RAUG   =    1.300    factor for augmentation sphere                                              
   RDEP   =    2.338    radius for radial grids                                                     
   RDEPT  =    1.911    core radius for aug-charge                                                  
                                                                                                    
   Atomic configuration                                                                             
    9 entries                                                                                       
     n  l   j            E        occ.                                                              
     1  0  0.50     -6424.8288   2.0000                                                             
     2  0  0.50      -739.1154   2.0000                                                             
     2  1  1.50      -625.3949   6.0000                                                             
     3  0  0.50       -81.6100   2.0000                                                             
     3  1  1.50       -50.4667   6.0000                                                             
     3  2  2.50        -3.3745   6.0000                                                             
     4  0  0.50        -4.1331   1.0000                                                             
     4  1  0.50        -4.0817   0.0000                                                             
     4  3  2.50        -1.3606   0.0000                                                             
   Description                                                                                      
     l       E           TYP  RCUT    TYP  RCUT                                                     
     2     -3.3744664     23  2.300                                                                 
     2     -4.7350490     23  2.300                                                                 
     0     -4.1331408     23  2.300                                                                 
     0      7.6656614     23  2.300                                                                 
     1     -2.7211652     23  2.300                                                                 
     1     20.4087390     23  2.300                                                                 
  local pseudopotential read in
  partial core-charges read in
  partial kinetic energy density read in
  atomic valenz-charges read in
  non local Contribution for L=           2  read in
    real space projection operators read in
  non local Contribution for L=           2  read in
    real space projection operators read in
  non local Contribution for L=           0  read in
    real space projection operators read in
  non local Contribution for L=           0  read in
    real space projection operators read in
  non local Contribution for L=           1  read in
    real space projection operators read in
  non local Contribution for L=           1  read in
    real space projection operators read in
    PAW grid and wavefunctions read in
 
   number of l-projection  operators is LMAX  =           6
   number of lm-projection operators is LMMAX =          18
 
 POTCAR:    PAW_PBE Fe 06Sep2000                  
   SHA256 =  cd5a22d9368cc8b5cc476bea79732366149640da08ac9009b0e1b7fc627eea28 Fe/POTCAR             
   COPYR  = (c) Copyright 06Sep2000 Georg Kresse                                                    
   COPYR  = This file is part of the software VASP. Any use, copying, and all other rights are regul
   COPYR  = If you do not have a valid VASP license, you may not use, copy or distribute this file. 
   VRHFIN =Fe:  d7 s1                                                                               
   LEXCH  = PE                                                                                      
   EATOM  =   594.3153 eV,   43.6809 Ry                                                             
                                                                                                    
   TITEL  = PAW_PBE Fe 06Sep2000                                                                    
   LULTRA =        F    use ultrasoft PP ?                                                          
   IUNSCR =        1    unscreen: 0-lin 1-nonlin 2-no                                               
   RPACOR =    2.000    partial core radius                                                         
   POMASS =   55.847; ZVAL   =    8.000    mass and valenz                                          
   RCORE  =    2.300    outmost cutoff radius                                                       
   RWIGS  =    2.460; RWIGS  =    1.302    wigner-seitz radius (au A)                               
   ENMAX  =  267.882; ENMIN  =  200.911 eV                                                          
   RCLOC  =    1.701    cutoff for local pot                                                        
   LCOR   =        T    correct aug charges                                                         
   LPAW   =        T    paw PP                                                                      
   EAUG   =  511.368                                                                                
   DEXC   =    0.000                                                                                
   RMAX   =    2.356    core radius for proj-oper                                                   
   RAUG   =    1.300    factor for augmentation sphere                                              
   RDEP   =    2.442    radius for radial grids                                                     
   RDEPT  =    1.890    core radius for aug-charge                                                  
                                                                                                    
   Atomic configuration                                                                             
    9 entries                                                                                       
     n  l   j            E        occ.                                                              
     1  0  0.50     -6993.8440   2.0000                                                             
     2  0  0.50      -814.6047   2.0000                                                             
     2  1  1.50      -693.3689   6.0000                                                             
     3  0  0.50       -89.4732   2.0000                                                             
     3  1  1.50       -55.6373   6.0000                                                             
     3  2  2.50        -3.8151   7.0000                                                             
     4  0  0.50        -4.2551   1.0000                                                             
     4  1  1.50        -3.4015   0.0000                                                             
     4  3  2.50        -1.3606   0.0000                                                             
   Description                                                                                      
     l       E           TYP  RCUT    TYP  RCUT                                                     
     2     -3.8151135     23  2.300                                                                 
     2     -5.1756961     23  2.300                                                                 
     0     -4.2550963     23  2.300                                                                 
     0      7.2035603     23  2.300                                                                 
     1     -2.7211652     23  2.300                                                                 
     1     18.4316424     23  2.300                                                                 
  local pseudopotential read in
  partial core-charges read in
  partial kinetic energy density read in
  atomic valenz-charges read in
  non local Contribution for L=           2  read in
    real space projection operators read in
  non local Contribution for L=           2  read in
    real space projection operators read in
  non local Contribution for L=           0  read in
    real space projection operators read in
  non local Contribution for L=           0  read in
    real space projection operators read in
  non local Contribution for L=           1  read in
    real space projection operators read in
  non local Contribution for L=           1  read in
    real space projection operators read in
    PAW grid and wavefunctions read in
 
   number of l-projection  operators is LMAX  =           6
   number of lm-projection operators is LMMAX =          18
 
 -----------------------------------------------------------------------------
|                                                                             |
|               ----> ADVICE to this user running VASP <----                  |
|                                                                             |
|     You have a (more or less) 'large supercell' and for larger cells it     |
|     might be more efficient to use real-space projection operators.         |
|     Therefore, try LREAL= Auto in the INCAR file.                           |
|     Mind: For very accurate calculation, you might also keep the            |
|     reciprocal projection scheme (i.e. LREAL=.FALSE.).                      |
|                                                                             |
 -----------------------------------------------------------------------------

  PAW_PBE Ni 02Aug2007                  :
 energy of atom  1       EATOM=-1077.6739
 kinetic energy error for atom=    0.0038 (will be added to EATOM!!)
  PAW_PBE Ge 05Jan2001                  :
 energy of atom  2       EATOM= -104.9960
 kinetic energy error for atom=    0.0003 (will be added to EATOM!!)
  PAW_PBE Mn 06Sep2000                  :
 energy of atom  3       EATOM= -416.7541
 kinetic energy error for atom=    0.0033 (will be added to EATOM!!)
  PAW_PBE Fe 06Sep2000                  :
 energy of atom  4       EATOM= -594.3153
 kinetic energy error for atom=    0.0034 (will be added to EATOM!!)
 
 
 POSCAR: MnFeNiGe_hex
  positions in direct lattice
  velocities in cartesian coordinates
 exchange correlation table for  LEXCH =        8
   RHO(1)=    0.500       N(1)  =     2000
   RHO(2)=  100.500       N(2)  =     4000
 


--------------------------------------------------------------------------------------------------------


 ion  position               nearest neighbor table
   1  0.667  0.833  0.375-  27 2.35  29 2.35  23 2.35  17 2.50  26 2.50  36 2.66  45 2.66  38 2.66
                            46 2.66  43 2.66  48 2.66
   2  0.333  0.167  0.625-  28 2.35  30 2.35  24 2.35  25 2.50  18 2.50  39 2.66  44 2.66  46 2.66
                            48 2.66  37 2.66  45 2.66
   3  0.167  0.833  0.375-  25 2.35  23 2.35  29 2.35  28 2.50  19 2.50  40 2.66  47 2.66  43 2.66
                            48 2.66  38 2.66  46 2.66
   4  0.833  0.167  0.625-  26 2.35  24 2.35  30 2.35  27 2.50  20 2.50  39 2.66  44 2.66  46 2.66
                            48 2.66  47 2.66  41 2.66
   5  0.167  0.333  0.375-  29 2.35  27 2.35  25 2.35  24 2.50  21 2.50  43 2.66  48 2.66  47 2.66
                            40 2.66  36 2.66  45 2.66
   6  0.833  0.667  0.625-  30 2.35  28 2.35  26 2.35  23 2.50  22 2.50  37 2.66  41 2.66  45 2.66
                            47 2.66  44 2.66  48 2.66
   7  0.833  0.667  0.125-  31 2.35  19 2.35  17 2.35  23 2.50  22 2.50  33 2.66  35 2.66  36 2.66
                            40 2.66  42 2.66  43 2.66
   8  0.167  0.333  0.875-  18 2.35  32 2.35  20 2.35  24 2.50  21 2.50  42 2.66  44 2.66  35 2.66
                            41 2.66  37 2.66  33 2.66
   9  0.333  0.167  0.125-  19 2.35  31 2.35  21 2.35  25 2.50  18 2.50  34 2.66  38 2.66  42 2.66
                            43 2.66  36 2.66  33 2.66
  10  0.667  0.833  0.875-  20 2.35  32 2.35  22 2.35  26 2.50  17 2.50  33 2.66  37 2.66  34 2.66
                            39 2.66  42 2.66  44 2.66
  11  0.833  0.167  0.125-  17 2.35  21 2.35  31 2.35  27 2.50  20 2.50  34 2.66  38 2.66  42 2.66
                            43 2.66  35 2.66  40 2.66
  12  0.167  0.833  0.875-  18 2.35  22 2.35  32 2.35  28 2.50  19 2.50  35 2.66  41 2.66  42 2.66
                            44 2.66  39 2.66  34 2.66
  13  0.333  0.667  0.125-  21 2.35  17 2.35  19 2.35  29 2.50  32 2.50  33 2.66  35 2.66  36 2.66
                            40 2.66  38 2.66  34 2.66
  14  0.667  0.333  0.875-  22 2.35  20 2.35  18 2.35  30 2.50  31 2.50  34 2.66  39 2.66  37 2.66
                            33 2.66  35 2.66  41 2.66
  15  0.667  0.333  0.375-  23 2.35  25 2.35  27 2.35  30 2.50  31 2.50  38 2.66  46 2.66  45 2.66
                            36 2.66  40 2.66  47 2.66
  16  0.333  0.667  0.625-  24 2.35  26 2.35  28 2.35  29 2.50  32 2.50  37 2.66  41 2.66  45 2.66
                            47 2.66  46 2.66  39 2.66
  17  0.667  0.833  0.125-  11 2.35  13 2.35   7 2.35   1 2.50  10 2.50  33 2.66  36 2.66  34 2.66
                            38 2.66  42 2.66  43 2.66
  18  0.333  0.167  0.875-   8 2.35  12 2.35  14 2.35   2 2.50   9 2.50  42 2.66  44 2.66  33 2.66
                            37 2.66  34 2.66  39 2.66
  19  0.167  0.833  0.125-   9 2.35   7 2.35  13 2.35  12 2.50   3 2.50  35 2.66  40 2.66  42 2.66
                            43 2.66  38 2.66  34 2.66
  20  0.833  0.167  0.875-  10 2.35   8 2.35  14 2.35  11 2.50   4 2.50  34 2.66  39 2.66  42 2.66
                            44 2.66  35 2.66  41 2.66
  21  0.167  0.333  0.125-  13 2.35  11 2.35   9 2.35   8 2.50   5 2.50  42 2.66  43 2.66  35 2.66
                            40 2.66  36 2.66  33 2.66
  22  0.833  0.667  0.875-  14 2.35  12 2.35  10 2.35   7 2.50   6 2.50  33 2.66  35 2.66  37 2.66
                            41 2.66  42 2.66  44 2.66
  23  0.833  0.667  0.375-  15 2.35   3 2.35   1 2.35   7 2.50   6 2.50  36 2.66  40 2.66  45 2.66
                            47 2.66  43 2.66  48 2.66
  24  0.167  0.333  0.625-  16 2.35   4 2.35   2 2.35   8 2.50   5 2.50  44 2.66  48 2.66  47 2.66
                            41 2.66  37 2.66  45 2.66
  25  0.333  0.167  0.375-   3 2.35  15 2.35   5 2.35   9 2.50   2 2.50  38 2.66  43 2.66  46 2.66
                            48 2.66  36 2.66  45 2.66
  26  0.667  0.833  0.625-   4 2.35  16 2.35   6 2.35  10 2.50   1 2.50  37 2.66  45 2.66  39 2.66
                            46 2.66  44 2.66  48 2.66
  27  0.833  0.167  0.375-   1 2.35   5 2.35  15 2.35  11 2.50   4 2.50  38 2.66  43 2.66  46 2.66
                            48 2.66  47 2.66  40 2.66
  28  0.167  0.833  0.625-   2 2.35   6 2.35  16 2.35  12 2.50   3 2.50  41 2.66  47 2.66  44 2.66
                            48 2.66  39 2.66  46 2.66
  29  0.333  0.667  0.375-   5 2.35   1 2.35   3 2.35  13 2.50  16 2.50  36 2.66  40 2.66  45 2.66
                            47 2.66  46 2.66  38 2.66
  30  0.667  0.333  0.625-   6 2.35   2 2.35   4 2.35  14 2.50  15 2.50  39 2.66  46 2.66  45 2.66
                            37 2.66  41 2.66  47 2.66
  31  0.667  0.333  0.125-   7 2.35   9 2.35  11 2.35  14 2.50  15 2.50  34 2.66  38 2.66  36 2.66
                            33 2.66  35 2.66  40 2.66
  32  0.333  0.667  0.875-   8 2.35  10 2.35  12 2.35  13 2.50  16 2.50  33 2.66  35 2.66  37 2.66
                            41 2.66  39 2.66  34 2.66
  33  0.500  0.500  0.000-  36 2.50  37 2.50  10 2.66  17 2.66   7 2.66  22 2.66  31 2.66  32 2.66
                            13 2.66  14 2.66   9 2.66  18 2.66  21 2.66   8 2.66
  34  0.500  0.000  0.000-  38 2.50  39 2.50  14 2.66  31 2.66  17 2.66  20 2.66  10 2.66  11 2.66
                             9 2.66  13 2.66  32 2.66  19 2.66  12 2.66  18 2.66
  35  0.000  0.500  0.000-  40 2.50  41 2.50  12 2.66  19 2.66   8 2.66  21 2.66  22 2.66  32 2.66
                             7 2.66  13 2.66  20 2.66  11 2.66  31 2.66  14 2.66
  36  0.500  0.500  0.250-  33 2.50  45 2.50   1 2.66  17 2.66   7 2.66  23 2.66  29 2.66  31 2.66
                            13 2.66  15 2.66   9 2.66  25 2.66   5 2.66  21 2.66
  37  0.500  0.500  0.750-  33 2.50  45 2.50  10 2.66  26 2.66  22 2.66   6 2.66  30 2.66  32 2.66
                            14 2.66  16 2.66   2 2.66  18 2.66  24 2.66   8 2.66
  38  0.500  0.000  0.250-  34 2.50  46 2.50  15 2.66  31 2.66  17 2.66  25 2.66  27 2.66   9 2.66
                            11 2.66   1 2.66  29 2.66  13 2.66   3 2.66  19 2.66
  39  0.500  0.000  0.750-  34 2.50  46 2.50  14 2.66  30 2.66  20 2.66  26 2.66   4 2.66  10 2.66
                             2 2.66  16 2.66  32 2.66  12 2.66  28 2.66  18 2.66
  40  0.000  0.500  0.250-  35 2.50  47 2.50   3 2.66  19 2.66   5 2.66  21 2.66  23 2.66  29 2.66
                             7 2.66  13 2.66  27 2.66  11 2.66  15 2.66  31 2.66
  41  0.000  0.500  0.750-  35 2.50  47 2.50  12 2.66  28 2.66  22 2.66  24 2.66   8 2.66  32 2.66
                             6 2.66  16 2.66   4 2.66  20 2.66  30 2.66  14 2.66
  42  0.000  0.000  0.000-  43 2.50  44 2.50  18 2.66   8 2.66  21 2.66  19 2.66  20 2.66  11 2.66
                            12 2.66   9 2.66   7 2.66  22 2.66  17 2.66  10 2.66
  43  0.000  0.000  0.250-  42 2.50  48 2.50   5 2.66  21 2.66  19 2.66   3 2.66  25 2.66  27 2.66
                             9 2.66  11 2.66   7 2.66  23 2.66  17 2.66   1 2.66
  44  0.000  0.000  0.750-  42 2.50  48 2.50  18 2.66   8 2.66  24 2.66  20 2.66   2 2.66  28 2.66
                            12 2.66   4 2.66   6 2.66  22 2.66  26 2.66  10 2.66
  45  0.500  0.500  0.500-  36 2.50  37 2.50   1 2.66  26 2.66  23 2.66   6 2.66  29 2.66  30 2.66
                            15 2.66  16 2.66  25 2.66   2 2.66   5 2.66  24 2.66
  46  0.500  0.000  0.500-  38 2.50  39 2.50  15 2.66  30 2.66  25 2.66  26 2.66  27 2.66   2 2.66
                             4 2.66   1 2.66  29 2.66  16 2.66   3 2.66  28 2.66
  47  0.000  0.500  0.500-  40 2.50  41 2.50   3 2.66  28 2.66  23 2.66  24 2.66   5 2.66  29 2.66
                             6 2.66  16 2.66   4 2.66  27 2.66  15 2.66  30 2.66
  48  0.000  0.000  0.500-  43 2.50  44 2.50   5 2.66  24 2.66   3 2.66  25 2.66  27 2.66  28 2.66
                             4 2.66   2 2.66   6 2.66  23 2.66   1 2.66  26 2.66
 
  LATTYP: Found a hexagonal cell.
 ALAT       =     8.1302281060
 C/A-ratio  =     1.2280813329
  
  Lattice vectors:
  
 A1 = (   8.1302281060,   0.0000000000,   0.0000000000)
 A2 = (  -4.0651140530,   7.0409840784,   0.0000000000)
 A3 = (   0.0000000000,   0.0000000000,   9.9845813688)


Analysis of symmetry for initial positions (statically):
=====================================================================
 Subroutine PRICEL returns:
 Original cell was already a primitive cell.
 

 Routine SETGRP: Setting up the symmetry group for a 
 hexagonal supercell.


 Subroutine GETGRP returns: Found 12 space group operations
 (whereof 12 operations were pure point group operations)
 out of a pool of 24 trial point group operations.


The static configuration has the point symmetry D_3d.


Analysis of symmetry for dynamics (positions and initial velocities):
=====================================================================
 Subroutine PRICEL returns:
 Original cell was already a primitive cell.
 

 Routine SETGRP: Setting up the symmetry group for a 
 hexagonal supercell.


 Subroutine GETGRP returns: Found 12 space group operations
 (whereof 12 operations were pure point group operations)
 out of a pool of 24 trial point group operations.


The dynamic configuration has the point symmetry D_3d.


 Subroutine INISYM returns: Found 12 space group operations
 (whereof 12 operations are pure point group operations),
 and found     1 'primitive' translations


----------------------------------------------------------------------------------------

                                     Primitive cell                                     

  volume of cell :     571.5654

  direct lattice vectors                    reciprocal lattice vectors
     8.130228106  0.000000000  0.000000000     0.122997779  0.071012801  0.000000000
    -4.065114053  7.040984078  0.000000000     0.000000000  0.142025602  0.000000000
     0.000000000  0.000000000  9.984581369     0.000000000  0.000000000  0.100154424

  length of vectors
     8.130228106  8.130228106  9.984581369     0.142025602  0.142025602  0.100154424

  position of ions in fractional coordinates (direct lattice)
     0.666666666  0.833333333  0.375000000
     0.333333333  0.166666666  0.625000000
     0.166666666  0.833333333  0.375000000
     0.833333333  0.166666666  0.625000000
     0.166666666  0.333333333  0.375000000
     0.833333333  0.666666666  0.625000000
     0.833333333  0.666666666  0.125000000
     0.166666666  0.333333333  0.875000000
     0.333333333  0.166666666  0.125000000
     0.666666666  0.833333333  0.875000000
     0.833333333  0.166666666  0.125000000
     0.166666666  0.833333333  0.875000000
     0.333333333  0.666666666  0.125000000
     0.666666666  0.333333333  0.875000000
     0.666666666  0.333333333  0.375000000
     0.333333333  0.666666666  0.625000000
     0.666666666  0.833333333  0.125000000
     0.333333313  0.166666666  0.875000000
     0.166666666  0.833333333  0.125000000
     0.833333333  0.166666666  0.875000000
     0.166666666  0.333333333  0.125000000
     0.833333333  0.666666666  0.875000000
     0.833333333  0.666666666  0.375000000
     0.166666666  0.333333333  0.625000000
     0.333333333  0.166666666  0.375000000
     0.666666666  0.833333333  0.625000000
     0.833333333  0.166666666  0.375000000
     0.166666666  0.833333333  0.625000000
     0.333333333  0.666666666  0.375000000
     0.666666666  0.333333333  0.625000000
     0.666666666  0.333333333  0.125000000
     0.333333333  0.666666666  0.875000000
     0.500000000  0.500000000  0.000000000
     0.500000000  0.000000000  0.000000000
     0.000000000  0.500000000  0.000000000
     0.500000000  0.500000000  0.250000000
     0.500000000  0.500000000  0.750000000
     0.500000000  0.000000000  0.250000000
     0.500000000  0.000000000  0.750000000
     0.000000000  0.500000000  0.250000000
     0.000000000  0.500000000  0.750000000
     0.000000000  0.000000000  0.000000000
     0.000000000  0.000000000  0.250000000
     0.000000000  0.000000000  0.750000000
     0.500000000  0.500000000  0.500000000
     0.500000000  0.000000000  0.500000000
     0.000000000  0.500000000  0.500000000
     0.000000000  0.000000000  0.500000000

  ion indices of the primitive-cell ions
   primitive index   ion index
                 1           1
                 2           2
                 3           3
                 4           4
                 5           5
                 6           6
                 7           7
                 8           8
                 9           9
                10          10
                11          11
                12          12
                13          13
                14          14
                15          15
                16          16
                17          17
                18          18
                19          19
                20          20
                21          21
                22          22
                23          23
                24          24
                25          25
                26          26
                27          27
                28          28
                29          29
                30          30
                31          31
                32          32
                33          33
                34          34
                35          35
                36          36
                37          37
                38          38
                39          39
                40          40
                41          41
                42          42
                43          43
                44          44
                45          45
                46          46
                47          47
                48          48

----------------------------------------------------------------------------------------

 
 
 KPOINTS: Auto                                    

Automatic generation of k-mesh.
Space group operators:
 irot       det(A)        alpha          n_x          n_y          n_z        tau_x        tau_y        tau_z
    1     1.000000     0.000000     1.000000     0.000000     0.000000     0.000000     0.000000     0.000000
    2    -1.000000     0.000000     1.000000     0.000000     0.000000     0.000000     0.000000     0.000000
    3     1.000000   120.000000     0.000000     0.000000    -1.000000     0.000000     0.000000     0.000000
    4    -1.000000   120.000000     0.000000     0.000000    -1.000000     0.000000     0.000000     0.000000
    5     1.000000   120.000000     0.000000     0.000000     1.000000     0.000000     0.000000     0.000000
    6    -1.000000   120.000000     0.000000     0.000000     1.000000     0.000000     0.000000     0.000000
    7     1.000000   180.000000     1.000000     0.000000     0.000000     0.000000     0.000000     0.000000
    8    -1.000000   180.000000     1.000000     0.000000     0.000000     0.000000     0.000000     0.000000
    9     1.000000   180.000000     0.500000    -0.866025     0.000000     0.000000     0.000000     0.000000
   10    -1.000000   180.000000     0.500000    -0.866025     0.000000     0.000000     0.000000     0.000000
   11     1.000000   180.000000    -0.500000    -0.866025     0.000000     0.000000     0.000000     0.000000
   12    -1.000000   180.000000    -0.500000    -0.866025     0.000000     0.000000     0.000000     0.000000
 
 Subroutine IBZKPT returns following result:
 ===========================================
 
 Found     69 irreducible k-points:
 
 Following reciprocal coordinates:
            Coordinates               Weight
  0.000000  0.000000  0.000000      1.000000
  0.111111 -0.000000  0.000000      6.000000
  0.222222 -0.000000  0.000000      6.000000
  0.333333 -0.000000  0.000000      6.000000
  0.444444 -0.000000  0.000000      6.000000
  0.111111  0.111111  0.000000      6.000000
  0.222222  0.111111  0.000000     12.000000
  0.333333  0.111111  0.000000     12.000000
  0.444444  0.111111  0.000000      6.000000
  0.222222  0.222222  0.000000      6.000000
  0.333333  0.222222  0.000000     12.000000
  0.333333  0.333333  0.000000      2.000000
  0.000000  0.000000  0.142857      2.000000
  0.111111 -0.000000  0.142857      6.000000
  0.111111 -0.111111  0.142857      6.000000
  0.222222 -0.000000  0.142857      6.000000
  0.222222 -0.222222  0.142857      6.000000
  0.333333 -0.000000  0.142857      6.000000
  0.333333 -0.333333  0.142857      6.000000
  0.444444 -0.000000  0.142857      6.000000
  0.444444 -0.444444  0.142857      6.000000
  0.111111  0.111111  0.142857     12.000000
  0.222222  0.111111  0.142857     12.000000
  0.333333 -0.222222  0.142857     12.000000
  0.333333  0.111111  0.142857     12.000000
  0.444444 -0.333333  0.142857     12.000000
  0.444444  0.111111  0.142857     12.000000
  0.222222  0.222222  0.142857     12.000000
  0.333333  0.222222  0.142857     12.000000
 -0.444444 -0.333333  0.142857     12.000000
  0.333333  0.333333  0.142857      4.000000
  0.000000  0.000000  0.285714      2.000000
  0.111111 -0.000000  0.285714      6.000000
  0.111111 -0.111111  0.285714      6.000000
  0.222222 -0.000000  0.285714      6.000000
  0.222222 -0.222222  0.285714      6.000000
  0.333333 -0.000000  0.285714      6.000000
  0.333333 -0.333333  0.285714      6.000000
  0.444444 -0.000000  0.285714      6.000000
  0.444444 -0.444444  0.285714      6.000000
  0.111111  0.111111  0.285714     12.000000
  0.222222  0.111111  0.285714     12.000000
  0.333333 -0.222222  0.285714     12.000000
  0.333333  0.111111  0.285714     12.000000
  0.444444 -0.333333  0.285714     12.000000
  0.444444  0.111111  0.285714     12.000000
  0.222222  0.222222  0.285714     12.000000
  0.333333  0.222222  0.285714     12.000000
 -0.444444 -0.333333  0.285714     12.000000
  0.333333  0.333333  0.285714      4.000000
  0.000000  0.000000  0.428571      2.000000
  0.111111 -0.000000  0.428571      6.000000
  0.111111 -0.111111  0.428571      6.000000
  0.222222 -0.000000  0.428571      6.000000
  0.222222 -0.222222  0.428571      6.000000
  0.333333 -0.000000  0.428571      6.000000
  0.333333 -0.333333  0.428571      6.000000
  0.444444 -0.000000  0.428571      6.000000
  0.444444 -0.444444  0.428571      6.000000
  0.111111  0.111111  0.428571     12.000000
  0.222222  0.111111  0.428571     12.000000
  0.333333 -0.222222  0.428571     12.000000
  0.333333  0.111111  0.428571     12.000000
  0.444444 -0.333333  0.428571     12.000000
  0.444444  0.111111  0.428571     12.000000
  0.222222  0.222222  0.428571     12.000000
  0.333333  0.222222  0.428571     12.000000
 -0.444444 -0.333333  0.428571     12.000000
  0.333333  0.333333  0.428571      4.000000
 
 Following cartesian coordinates:
            Coordinates               Weight
  0.000000  0.000000  0.000000      1.000000
  0.013666  0.007890  0.000000      6.000000
  0.027333  0.015781  0.000000      6.000000
  0.040999  0.023671  0.000000      6.000000
  0.054666  0.031561  0.000000      6.000000
  0.013666  0.023671  0.000000      6.000000
  0.027333  0.031561  0.000000     12.000000
  0.040999  0.039452  0.000000     12.000000
  0.054666  0.047342  0.000000      6.000000
  0.027333  0.047342  0.000000      6.000000
  0.040999  0.055232  0.000000     12.000000
  0.040999  0.071013  0.000000      2.000000
  0.000000  0.000000  0.014308      2.000000
  0.013666  0.007890  0.014308      6.000000
  0.013666 -0.007890  0.014308      6.000000
  0.027333  0.015781  0.014308      6.000000
  0.027333 -0.015781  0.014308      6.000000
  0.040999  0.023671  0.014308      6.000000
  0.040999 -0.023671  0.014308      6.000000
  0.054666  0.031561  0.014308      6.000000
  0.054666 -0.031561  0.014308      6.000000
  0.013666  0.023671  0.014308     12.000000
  0.027333  0.031561  0.014308     12.000000
  0.040999 -0.007890  0.014308     12.000000
  0.040999  0.039452  0.014308     12.000000
  0.054666 -0.015781  0.014308     12.000000
  0.054666  0.047342  0.014308     12.000000
  0.027333  0.047342  0.014308     12.000000
  0.040999  0.055232  0.014308     12.000000
 -0.054666 -0.078903  0.014308     12.000000
  0.040999  0.071013  0.014308      4.000000
  0.000000  0.000000  0.028616      2.000000
  0.013666  0.007890  0.028616      6.000000
  0.013666 -0.007890  0.028616      6.000000
  0.027333  0.015781  0.028616      6.000000
  0.027333 -0.015781  0.028616      6.000000
  0.040999  0.023671  0.028616      6.000000
  0.040999 -0.023671  0.028616      6.000000
  0.054666  0.031561  0.028616      6.000000
  0.054666 -0.031561  0.028616      6.000000
  0.013666  0.023671  0.028616     12.000000
  0.027333  0.031561  0.028616     12.000000
  0.040999 -0.007890  0.028616     12.000000
  0.040999  0.039452  0.028616     12.000000
  0.054666 -0.015781  0.028616     12.000000
  0.054666  0.047342  0.028616     12.000000
  0.027333  0.047342  0.028616     12.000000
  0.040999  0.055232  0.028616     12.000000
 -0.054666 -0.078903  0.028616     12.000000
  0.040999  0.071013  0.028616      4.000000
  0.000000  0.000000  0.042923      2.000000
  0.013666  0.007890  0.042923      6.000000
  0.013666 -0.007890  0.042923      6.000000
  0.027333  0.015781  0.042923      6.000000
  0.027333 -0.015781  0.042923      6.000000
  0.040999  0.023671  0.042923      6.000000
  0.040999 -0.023671  0.042923      6.000000
  0.054666  0.031561  0.042923      6.000000
  0.054666 -0.031561  0.042923      6.000000
  0.013666  0.023671  0.042923     12.000000
  0.027333  0.031561  0.042923     12.000000
  0.040999 -0.007890  0.042923     12.000000
  0.040999  0.039452  0.042923     12.000000
  0.054666 -0.015781  0.042923     12.000000
  0.054666  0.047342  0.042923     12.000000
  0.027333  0.047342  0.042923     12.000000
  0.040999  0.055232  0.042923     12.000000
 -0.054666 -0.078903  0.042923     12.000000
  0.040999  0.071013  0.042923      4.000000
 


--------------------------------------------------------------------------------------------------------




 Dimension of arrays:
   k-points           NKPTS =     69   k-points in BZ     NKDIM =     69   number of bands    NBANDS=    360
   number of dos      NEDOS =    301   number of ions     NIONS =     48
   non local maximal  LDIM  =      6   non local SUM 2l+1 LMDIM =     18
   total plane-waves  NPLWV = 219520
   max r-space proj   IRMAX =      1   max aug-charges    IRDMAX=  21071
   dimension x,y,z NGX =    56 NGY =   56 NGZ =   70
   dimension x,y,z NGXF=   112 NGYF=  112 NGZF=  140
   support grid    NGXF=   112 NGYF=  112 NGZF=  140
   ions per type =              16  16  15   1
   NGX,Y,Z   is equivalent  to a cutoff of  11.45, 11.45, 11.66 a.u.
   NGXF,Y,Z  is equivalent  to a cutoff of  22.90, 22.90, 23.31 a.u.

 SYSTEM =  MnFeNiGe_nmag_hex-SCF                   
 POSCAR =  MnFeNiGe_hex                            

 Startparameter for this run:
   NWRITE =      2    write-flag & timer
   PREC   = accura    normal or accurate (medium, high low for compatibility)
   ISTART =      0    job   : 0-new  1-cont  2-samecut
   ICHARG =      2    charge: 1-file 2-atom 10-const
   ISPIN  =      1    spin polarized calculation?
   LNONCOLLINEAR =      F non collinear calculations
   LSORBIT =      F    spin-orbit coupling
   INIWAV =      1    electr: 0-lowe 1-rand  2-diag
   LASPH  =      F    aspherical Exc in radial PAW
   METAGGA=      F    non-selfconsistent MetaGGA calc.

 Electronic Relaxation 1
   ENCUT  =  450.0 eV  33.07 Ry    5.75 a.u.  14.06 14.06 17.27*2*pi/ulx,y,z
   ENINI  =  450.0     initial cutoff
   ENAUG  =  544.6 eV  augmentation charge cutoff
   NELM   =     60;   NELMIN=  5; NELMDL= -5     # of ELM steps 
   EDIFF  = 0.1E-05   stopping-criterion for ELM
   LREAL  =      F    real-space projection
   NLSPLINE    = F    spline interpolate recip. space projectors
   LCOMPAT=      F    compatible to vasp.4.4
   GGA_COMPAT  = T    GGA compatible to vasp.4.4-vasp.4.6
   LMAXPAW     = -100 max onsite density
   LMAXMIX     =    2 max onsite mixed and CHGCAR
   VOSKOWN=      0    Vosko Wilk Nusair interpolation
   ROPT   =    0.00000   0.00000   0.00000   0.00000
 Ionic relaxation
   EDIFFG = 0.1E-04   stopping-criterion for IOM
   NSW    =      0    number of steps for IOM
   NBLOCK =      1;   KBLOCK =      1    inner block; outer block 
   IBRION =     -1    ionic relax: 0-MD 1-quasi-New 2-CG
   NFREE  =      0    steps in history (QN), initial steepest desc. (CG)
   ISIF   =      6    stress and relaxation
   IWAVPR =     10    prediction:  0-non 1-charg 2-wave 3-comb
   ISYM   =      2    0-nonsym 1-usesym 2-fastsym
   LCORR  =      T    Harris-Foulkes like correction to forces

   POTIM  = 0.5000    time-step for ionic-motion
   TEIN   =    0.0    initial temperature
   TEBEG  =    0.0;   TEEND  =   0.0 temperature during run
   SMASS  =  -3.00    Nose mass-parameter (am)
   estimated Nose-frequenzy (Omega)   =  0.10E-29 period in steps = 0.13E+47 mass=  -0.151E-26a.u.
   SCALEE = 1.0000    scale energy and forces
   NPACO  =    256;   APACO  = 16.0  distance and # of slots for P.C.
   PSTRESS=    0.0 pullay stress

  Mass of Ions in am
   POMASS =  58.69 72.61 54.94 55.85
  Ionic Valenz
   ZVAL   =  10.00  4.00  7.00  8.00
  Atomic Wigner-Seitz radii
   RWIGS  =  -1.00 -1.00 -1.00 -1.00
  virtual crystal weights 
   VCA    =   1.00  1.00  1.00  1.00
   NELECT =     337.0000    total number of electrons
   NUPDOWN=      -1.0000    fix difference up-down

 DOS related values:
   EMIN   =  10.00;   EMAX   =-10.00  energy-range for DOS
   EFERMI =   0.00
   ISMEAR =     1;   SIGMA  =   0.20  broadening in eV -4-tet -1-fermi 0-gaus

 Electronic relaxation 2 (details)
   IALGO  =     38    algorithm
   LDIAG  =      T    sub-space diagonalisation (order eigenvalues)
   LSUBROT=      F    optimize rotation matrix (better conditioning)
   TURBO    =      0    0=normal 1=particle mesh
   IRESTART =      0    0=no restart 2=restart with 2 vectors
   NREBOOT  =      0    no. of reboots
   NMIN     =      0    reboot dimension
   EREF     =   0.00    reference energy to select bands
   IMIX   =      4    mixing-type and parameters
     AMIX     =   0.40;   BMIX     =  1.00
     AMIX_MAG =   1.60;   BMIX_MAG =  1.00
     AMIN     =   0.10
     WC   =   100.;   INIMIX=   1;  MIXPRE=   1;  MAXMIX= -45

 Intra band minimization:
   WEIMIN = 0.0000     energy-eigenvalue tresh-hold
   EBREAK =  0.69E-09  absolut break condition
   DEPER  =   0.30     relativ break condition  

   TIME   =   0.40     timestep for ELM

  volume/ion in A,a.u.               =      11.91        80.36
  Fermi-wavevector in a.u.,A,eV,Ry     =   1.372765  2.594149 25.639952  1.884483
  Thomas-Fermi vector in A             =   2.498342
 
 Write flags
   LWAVE        =      F    write WAVECAR
   LDOWNSAMPLE  =      F    k-point downsampling of WAVECAR
   LCHARG       =      T    write CHGCAR
   LVTOT        =      F    write LOCPOT, total local potential
   LVHAR        =      F    write LOCPOT, Hartree potential only
   LELF         =      F    write electronic localiz. function (ELF)
   LORBIT       =      0    0 simple, 1 ext, 2 COOP (PROOUT), +10 PAW based schemes


 Dipole corrections
   LMONO  =      F    monopole corrections only (constant potential shift)
   LDIPOL =      F    correct potential (dipole corrections)
   IDIPOL =      0    1-x, 2-y, 3-z, 4-all directions 
   EPSILON=  1.0000000 bulk dielectric constant

 Exchange correlation treatment:
   GGA     =    --    GGA type
   LEXCH   =     8    internal setting for exchange type
   VOSKOWN=      0    Vosko Wilk Nusair interpolation
   LHFCALC =     F    Hartree Fock is set to
   LHFONE  =     F    Hartree Fock one center treatment
   AEXX    =    0.0000 exact exchange contribution

 Linear response parameters
   LEPSILON=     F    determine dielectric tensor
   LRPA    =     F    only Hartree local field effects (RPA)
   LNABLA  =     F    use nabla operator in PAW spheres
   LVEL    =     F    velocity operator in full k-point grid
   LINTERFAST=   F  fast interpolation
   KINTER  =     0    interpolate to denser k-point grid
   CSHIFT  =0.1000    complex shift for real part using Kramers Kronig
   OMEGAMAX=  -1.0    maximum frequency
   DEG_THRESHOLD= 0.2000000E-02 threshold for treating states as degnerate
   RTIME   =   -0.100 relaxation time in fs
  (WPLASMAI=    0.000 imaginary part of plasma frequency in eV, 0.658/RTIME)
   DFIELD  = 0.0000000 0.0000000 0.0000000 field for delta impulse in time
 
 Orbital magnetization related:
   ORBITALMAG=     F  switch on orbital magnetization
   LCHIMAG   =     F  perturbation theory with respect to B field
   DQ        =  0.001000  dq finite difference perturbation B field
   LLRAUG    =     F  two centre corrections for induced B field



--------------------------------------------------------------------------------------------------------


 Static calculation
 charge density and potential will be updated during run
 non-spin polarized calculation
 Variant of blocked Davidson
 Davidson routine will perform the subspace rotation
 perform sub-space diagonalisation
    after iterative eigenvector-optimisation
 modified Broyden-mixing scheme, WC =      100.0
 initial mixing is a Kerker type mixing with AMIX =  0.4000 and BMIX =      1.0000
 Hartree-type preconditioning will be used
 using additional bands          191
 reciprocal scheme for non local part
 use partial core corrections
 calculate Harris-corrections to forces 
   (improved forces if not selfconsistent)
 use gradient corrections 
 use of overlap-Matrix (Vanderbilt PP)
 Methfessel and Paxton  Order N= 1 SIGMA  =   0.20


--------------------------------------------------------------------------------------------------------


  energy-cutoff  :      450.00
  volume of cell :      571.57
      direct lattice vectors                 reciprocal lattice vectors
     8.130228106  0.000000000  0.000000000     0.122997779  0.071012801  0.000000000
    -4.065114053  7.040984078  0.000000000     0.000000000  0.142025602  0.000000000
     0.000000000  0.000000000  9.984581369     0.000000000  0.000000000  0.100154424

  length of vectors
     8.130228106  8.130228106  9.984581369     0.142025602  0.142025602  0.100154424


 
 k-points in units of 2pi/SCALE and weight: Auto                                    
   0.00000000  0.00000000  0.00000000       0.002
   0.01366642  0.00789031  0.00000000       0.011
   0.02733284  0.01578062  0.00000000       0.011
   0.04099926  0.02367093  0.00000000       0.011
   0.05466568  0.03156124  0.00000000       0.011
   0.01366642  0.02367093  0.00000000       0.011
   0.02733284  0.03156124  0.00000000       0.021
   0.04099926  0.03945156  0.00000000       0.021
   0.05466568  0.04734187  0.00000000       0.011
   0.02733284  0.04734187  0.00000000       0.011
   0.04099926  0.05523218  0.00000000       0.021
   0.04099926  0.07101280  0.00000000       0.004
   0.00000000  0.00000000  0.01430777       0.004
   0.01366642  0.00789031  0.01430777       0.011
   0.01366642 -0.00789031  0.01430777       0.011
   0.02733284  0.01578062  0.01430777       0.011
   0.02733284 -0.01578062  0.01430777       0.011
   0.04099926  0.02367093  0.01430777       0.011
   0.04099926 -0.02367093  0.01430777       0.011
   0.05466568  0.03156124  0.01430777       0.011
   0.05466568 -0.03156124  0.01430777       0.011
   0.01366642  0.02367093  0.01430777       0.021
   0.02733284  0.03156124  0.01430777       0.021
   0.04099926 -0.00789031  0.01430777       0.021
   0.04099926  0.03945156  0.01430777       0.021
   0.05466568 -0.01578062  0.01430777       0.021
   0.05466568  0.04734187  0.01430777       0.021
   0.02733284  0.04734187  0.01430777       0.021
   0.04099926  0.05523218  0.01430777       0.021
  -0.05466568 -0.07890311  0.01430777       0.021
   0.04099926  0.07101280  0.01430777       0.007
   0.00000000  0.00000000  0.02861555       0.004
   0.01366642  0.00789031  0.02861555       0.011
   0.01366642 -0.00789031  0.02861555       0.011
   0.02733284  0.01578062  0.02861555       0.011
   0.02733284 -0.01578062  0.02861555       0.011
   0.04099926  0.02367093  0.02861555       0.011
   0.04099926 -0.02367093  0.02861555       0.011
   0.05466568  0.03156124  0.02861555       0.011
   0.05466568 -0.03156124  0.02861555       0.011
   0.01366642  0.02367093  0.02861555       0.021
   0.02733284  0.03156124  0.02861555       0.021
   0.04099926 -0.00789031  0.02861555       0.021
   0.04099926  0.03945156  0.02861555       0.021
   0.05466568 -0.01578062  0.02861555       0.021
   0.05466568  0.04734187  0.02861555       0.021
   0.02733284  0.04734187  0.02861555       0.021
   0.04099926  0.05523218  0.02861555       0.021
  -0.05466568 -0.07890311  0.02861555       0.021
   0.04099926  0.07101280  0.02861555       0.007
   0.00000000  0.00000000  0.04292332       0.004
   0.01366642  0.00789031  0.04292332       0.011
   0.01366642 -0.00789031  0.04292332       0.011
   0.02733284  0.01578062  0.04292332       0.011
   0.02733284 -0.01578062  0.04292332       0.011
   0.04099926  0.02367093  0.04292332       0.011
   0.04099926 -0.02367093  0.04292332       0.011
   0.05466568  0.03156124  0.04292332       0.011
   0.05466568 -0.03156124  0.04292332       0.011
   0.01366642  0.02367093  0.04292332       0.021
   0.02733284  0.03156124  0.04292332       0.021
   0.04099926 -0.00789031  0.04292332       0.021
   0.04099926  0.03945156  0.04292332       0.021
   0.05466568 -0.01578062  0.04292332       0.021
   0.05466568  0.04734187  0.04292332       0.021
   0.02733284  0.04734187  0.04292332       0.021
   0.04099926  0.05523218  0.04292332       0.021
  -0.05466568 -0.07890311  0.04292332       0.021
   0.04099926  0.07101280  0.04292332       0.007
 
 k-points in reciprocal lattice and weights: Auto                                    
   0.00000000  0.00000000  0.00000000       0.002
   0.11111111 -0.00000000  0.00000000       0.011
   0.22222222 -0.00000000  0.00000000       0.011
   0.33333333 -0.00000000  0.00000000       0.011
   0.44444444 -0.00000000  0.00000000       0.011
   0.11111111  0.11111111  0.00000000       0.011
   0.22222222  0.11111111  0.00000000       0.021
   0.33333333  0.11111111  0.00000000       0.021
   0.44444444  0.11111111  0.00000000       0.011
   0.22222222  0.22222222  0.00000000       0.011
   0.33333333  0.22222222  0.00000000       0.021
   0.33333333  0.33333333  0.00000000       0.004
   0.00000000  0.00000000  0.14285714       0.004
   0.11111111 -0.00000000  0.14285714       0.011
   0.11111111 -0.11111111  0.14285714       0.011
   0.22222222 -0.00000000  0.14285714       0.011
   0.22222222 -0.22222222  0.14285714       0.011
   0.33333333 -0.00000000  0.14285714       0.011
   0.33333333 -0.33333333  0.14285714       0.011
   0.44444444 -0.00000000  0.14285714       0.011
   0.44444444 -0.44444444  0.14285714       0.011
   0.11111111  0.11111111  0.14285714       0.021
   0.22222222  0.11111111  0.14285714       0.021
   0.33333333 -0.22222222  0.14285714       0.021
   0.33333333  0.11111111  0.14285714       0.021
   0.44444444 -0.33333333  0.14285714       0.021
   0.44444444  0.11111111  0.14285714       0.021
   0.22222222  0.22222222  0.14285714       0.021
   0.33333333  0.22222222  0.14285714       0.021
  -0.44444444 -0.33333333  0.14285714       0.021
   0.33333333  0.33333333  0.14285714       0.007
   0.00000000  0.00000000  0.28571429       0.004
   0.11111111 -0.00000000  0.28571429       0.011
   0.11111111 -0.11111111  0.28571429       0.011
   0.22222222 -0.00000000  0.28571429       0.011
   0.22222222 -0.22222222  0.28571429       0.011
   0.33333333 -0.00000000  0.28571429       0.011
   0.33333333 -0.33333333  0.28571429       0.011
   0.44444444 -0.00000000  0.28571429       0.011
   0.44444444 -0.44444444  0.28571429       0.011
   0.11111111  0.11111111  0.28571429       0.021
   0.22222222  0.11111111  0.28571429       0.021
   0.33333333 -0.22222222  0.28571429       0.021
   0.33333333  0.11111111  0.28571429       0.021
   0.44444444 -0.33333333  0.28571429       0.021
   0.44444444  0.11111111  0.28571429       0.021
   0.22222222  0.22222222  0.28571429       0.021
   0.33333333  0.22222222  0.28571429       0.021
  -0.44444444 -0.33333333  0.28571429       0.021
   0.33333333  0.33333333  0.28571429       0.007
   0.00000000  0.00000000  0.42857143       0.004
   0.11111111 -0.00000000  0.42857143       0.011
   0.11111111 -0.11111111  0.42857143       0.011
   0.22222222 -0.00000000  0.42857143       0.011
   0.22222222 -0.22222222  0.42857143       0.011
   0.33333333 -0.00000000  0.42857143       0.011
   0.33333333 -0.33333333  0.42857143       0.011
   0.44444444 -0.00000000  0.42857143       0.011
   0.44444444 -0.44444444  0.42857143       0.011
   0.11111111  0.11111111  0.42857143       0.021
   0.22222222  0.11111111  0.42857143       0.021
   0.33333333 -0.22222222  0.42857143       0.021
   0.33333333  0.11111111  0.42857143       0.021
   0.44444444 -0.33333333  0.42857143       0.021
   0.44444444  0.11111111  0.42857143       0.021
   0.22222222  0.22222222  0.42857143       0.021
   0.33333333  0.22222222  0.42857143       0.021
  -0.44444444 -0.33333333  0.42857143       0.021
   0.33333333  0.33333333  0.42857143       0.007
 
 position of ions in fractional coordinates (direct lattice) 
   0.66666667  0.83333333  0.37500000
   0.33333333  0.16666667  0.62500000
   0.16666667  0.83333333  0.37500000
   0.83333333  0.16666667  0.62500000
   0.16666667  0.33333333  0.37500000
   0.83333333  0.66666667  0.62500000
   0.83333333  0.66666667  0.12500000
   0.16666667  0.33333333  0.87500000
   0.33333333  0.16666667  0.12500000
   0.66666667  0.83333333  0.87500000
   0.83333333  0.16666667  0.12500000
   0.16666667  0.83333333  0.87500000
   0.33333333  0.66666667  0.12500000
   0.66666667  0.33333333  0.87500000
   0.66666667  0.33333333  0.37500000
   0.33333333  0.66666667  0.62500000
   0.66666667  0.83333333  0.12500000
   0.33333331  0.16666667  0.87500000
   0.16666667  0.83333333  0.12500000
   0.83333333  0.16666667  0.87500000
   0.16666667  0.33333333  0.12500000
   0.83333333  0.66666667  0.87500000
   0.83333333  0.66666667  0.37500000
   0.16666667  0.33333333  0.62500000
   0.33333333  0.16666667  0.37500000
   0.66666667  0.83333333  0.62500000
   0.83333333  0.16666667  0.37500000
   0.16666667  0.83333333  0.62500000
   0.33333333  0.66666667  0.37500000
   0.66666667  0.33333333  0.62500000
   0.66666667  0.33333333  0.12500000
   0.33333333  0.66666667  0.87500000
   0.50000000  0.50000000  0.00000000
   0.50000000  0.00000000  0.00000000
   0.00000000  0.50000000  0.00000000
   0.50000000  0.50000000  0.25000000
   0.50000000  0.50000000  0.75000000
   0.50000000  0.00000000  0.25000000
   0.50000000  0.00000000  0.75000000
   0.00000000  0.50000000  0.25000000
   0.00000000  0.50000000  0.75000000
   0.00000000  0.00000000  0.00000000
   0.00000000  0.00000000  0.25000000
   0.00000000  0.00000000  0.75000000
   0.50000000  0.50000000  0.50000000
   0.50000000  0.00000000  0.50000000
   0.00000000  0.50000000  0.50000000
   0.00000000  0.00000000  0.50000000
 
 position of ions in cartesian coordinates  (Angst):
   2.03255702  5.86748673  3.74421801
   2.03255703  1.17349734  6.24036336
  -2.03255703  5.86748673  3.74421801
   6.09767108  1.17349734  6.24036336
  -0.00000000  2.34699469  3.74421801
   4.06511405  4.69398938  6.24036336
   4.06511405  4.69398938  1.24807267
  -0.00000000  2.34699469  8.73650870
   2.03255703  1.17349734  1.24807267
   2.03255702  5.86748673  8.73650870
   6.09767108  1.17349734  1.24807267
  -2.03255703  5.86748673  8.73650870
   0.00000000  4.69398938  1.24807267
   4.06511405  2.34699469  8.73650870
   4.06511405  2.34699469  3.74421801
   0.00000000  4.69398938  6.24036336
   2.03255702  5.86748673  1.24807267
   2.03255686  1.17349734  8.73650870
  -2.03255703  5.86748673  1.24807267
   6.09767108  1.17349734  8.73650870
  -0.00000000  2.34699469  1.24807267
   4.06511405  4.69398938  8.73650870
   4.06511405  4.69398938  3.74421801
  -0.00000000  2.34699469  6.24036336
   2.03255703  1.17349734  3.74421801
   2.03255702  5.86748673  6.24036336
   6.09767108  1.17349734  3.74421801
  -2.03255703  5.86748673  6.24036336
   0.00000000  4.69398938  3.74421801
   4.06511405  2.34699469  6.24036336
   4.06511405  2.34699469  1.24807267
   0.00000000  4.69398938  8.73650870
   2.03255703  3.52049204  0.00000000
   4.06511405  0.00000000  0.00000000
  -2.03255703  3.52049204  0.00000000
   2.03255703  3.52049204  2.49614534
   2.03255703  3.52049204  7.48843603
   4.06511405  0.00000000  2.49614534
   4.06511405  0.00000000  7.48843603
  -2.03255703  3.52049204  2.49614534
  -2.03255703  3.52049204  7.48843603
   0.00000000  0.00000000  0.00000000
   0.00000000  0.00000000  2.49614534
   0.00000000  0.00000000  7.48843603
   2.03255703  3.52049204  4.99229068
   4.06511405  0.00000000  4.99229068
  -2.03255703  3.52049204  4.99229068
   0.00000000  0.00000000  4.99229068
 


--------------------------------------------------------------------------------------------------------


 k-point   1 :   0.0000 0.0000 0.0000  plane waves:   12365
 k-point   2 :   0.1111-0.0000 0.0000  plane waves:   12361
 k-point   3 :   0.2222-0.0000 0.0000  plane waves:   12400
 k-point   4 :   0.3333-0.0000 0.0000  plane waves:   12376
 k-point   5 :   0.4444-0.0000 0.0000  plane waves:   12386
 k-point   6 :   0.1111 0.1111 0.0000  plane waves:   12410
 k-point   7 :   0.2222 0.1111 0.0000  plane waves:   12396
 k-point   8 :   0.3333 0.1111 0.0000  plane waves:   12387
 k-point   9 :   0.4444 0.1111 0.0000  plane waves:   12392
 k-point  10 :   0.2222 0.2222 0.0000  plane waves:   12386
 k-point  11 :   0.3333 0.2222 0.0000  plane waves:   12404
 k-point  12 :   0.3333 0.3333 0.0000  plane waves:   12408
 k-point  13 :   0.0000 0.0000 0.1429  plane waves:   12341
 k-point  14 :   0.1111-0.0000 0.1429  plane waves:   12357
 k-point  15 :   0.1111-0.1111 0.1429  plane waves:   12357
 k-point  16 :   0.2222-0.0000 0.1429  plane waves:   12374
 k-point  17 :   0.2222-0.2222 0.1429  plane waves:   12374
 k-point  18 :   0.3333-0.0000 0.1429  plane waves:   12388
 k-point  19 :   0.3333-0.3333 0.1429  plane waves:   12388
 k-point  20 :   0.4444-0.0000 0.1429  plane waves:   12398
 k-point  21 :   0.4444-0.4444 0.1429  plane waves:   12398
 k-point  22 :   0.1111 0.1111 0.1429  plane waves:   12388
 k-point  23 :   0.2222 0.1111 0.1429  plane waves:   12396
 k-point  24 :   0.3333-0.2222 0.1429  plane waves:   12396
 k-point  25 :   0.3333 0.1111 0.1429  plane waves:   12397
 k-point  26 :   0.4444-0.3333 0.1429  plane waves:   12397
 k-point  27 :   0.4444 0.1111 0.1429  plane waves:   12384
 k-point  28 :   0.2222 0.2222 0.1429  plane waves:   12379
 k-point  29 :   0.3333 0.2222 0.1429  plane waves:   12406
 k-point  30 :  -0.4444-0.3333 0.1429  plane waves:   12406
 k-point  31 :   0.3333 0.3333 0.1429  plane waves:   12417
 k-point  32 :   0.0000 0.0000 0.2857  plane waves:   12382
 k-point  33 :   0.1111-0.0000 0.2857  plane waves:   12359
 k-point  34 :   0.1111-0.1111 0.2857  plane waves:   12359
 k-point  35 :   0.2222-0.0000 0.2857  plane waves:   12385
 k-point  36 :   0.2222-0.2222 0.2857  plane waves:   12385
 k-point  37 :   0.3333-0.0000 0.2857  plane waves:   12378
 k-point  38 :   0.3333-0.3333 0.2857  plane waves:   12378
 k-point  39 :   0.4444-0.0000 0.2857  plane waves:   12383
 k-point  40 :   0.4444-0.4444 0.2857  plane waves:   12383
 k-point  41 :   0.1111 0.1111 0.2857  plane waves:   12376
 k-point  42 :   0.2222 0.1111 0.2857  plane waves:   12376
 k-point  43 :   0.3333-0.2222 0.2857  plane waves:   12376
 k-point  44 :   0.3333 0.1111 0.2857  plane waves:   12392
 k-point  45 :   0.4444-0.3333 0.2857  plane waves:   12392
 k-point  46 :   0.4444 0.1111 0.2857  plane waves:   12384
 k-point  47 :   0.2222 0.2222 0.2857  plane waves:   12409
 k-point  48 :   0.3333 0.2222 0.2857  plane waves:   12396
 k-point  49 :  -0.4444-0.3333 0.2857  plane waves:   12396
 k-point  50 :   0.3333 0.3333 0.2857  plane waves:   12420
 k-point  51 :   0.0000 0.0000 0.4286  plane waves:   12364
 k-point  52 :   0.1111-0.0000 0.4286  plane waves:   12377
 k-point  53 :   0.1111-0.1111 0.4286  plane waves:   12377
 k-point  54 :   0.2222-0.0000 0.4286  plane waves:   12366
 k-point  55 :   0.2222-0.2222 0.4286  plane waves:   12366
 k-point  56 :   0.3333-0.0000 0.4286  plane waves:   12386
 k-point  57 :   0.3333-0.3333 0.4286  plane waves:   12386
 k-point  58 :   0.4444-0.0000 0.4286  plane waves:   12391
 k-point  59 :   0.4444-0.4444 0.4286  plane waves:   12391
 k-point  60 :   0.1111 0.1111 0.4286  plane waves:   12367
 k-point  61 :   0.2222 0.1111 0.4286  plane waves:   12380
 k-point  62 :   0.3333-0.2222 0.4286  plane waves:   12380
 k-point  63 :   0.3333 0.1111 0.4286  plane waves:   12403
 k-point  64 :   0.4444-0.3333 0.4286  plane waves:   12403
 k-point  65 :   0.4444 0.1111 0.4286  plane waves:   12400
 k-point  66 :   0.2222 0.2222 0.4286  plane waves:   12396
 k-point  67 :   0.3333 0.2222 0.4286  plane waves:   12402
 k-point  68 :  -0.4444-0.3333 0.4286  plane waves:   12402
 k-point  69 :   0.3333 0.3333 0.4286  plane waves:   12408

 maximum and minimum number of plane-waves per node :      2105     2008

 maximum number of plane-waves:     12420
 maximum index in each direction: 
   IXMAX=   14   IYMAX=   14   IZMAX=   17
   IXMIN=  -14   IYMIN=  -14   IZMIN=  -17


 parallel 3D FFT for wavefunctions:
    minimum data exchange during FFTs selected (reduces bandwidth)
 parallel 3D FFT for charge:
    minimum data exchange during FFTs selected (reduces bandwidth)


 total amount of memory used by VASP MPI-rank0   346771. kBytes
=======================================================================

   base      :      30000. kBytes
   nonl-proj :      84589. kBytes
   fftplans  :       3798. kBytes
   grid      :       7284. kBytes
   one-center:        124. kBytes
   wavefun   :     220976. kBytes
 
     INWAV:  cpu time    0.0000: real time    0.0099
 Broyden mixing: mesh for mixing (old mesh)
   NGX = 29   NGY = 29   NGZ = 35
  (NGX  =112   NGY  =112   NGZ  =140)
  gives a total of  29435 points

 initial charge density was supplied:
 charge density of overlapping atoms calculated
 number of electron     337.0000000 magnetization 
 keeping initial charge density in first step


--------------------------------------------------------------------------------------------------------


 Maximum index for augmentation-charges          952 (set IRDMAX)


--------------------------------------------------------------------------------------------------------


 First call to EWALD:  gamma=   0.214
 Maximum number of real-space cells 3x 3x 2
 Maximum number of reciprocal cells 3x 3x 3

    FEWALD:  cpu time    0.0020: real time    0.0207


--------------------------------------- Iteration      1(   1)  ---------------------------------------


    POTLOK:  cpu time    0.0800: real time    0.4146
    SETDIJ:  cpu time    0.0190: real time    0.1457
     EDDAV:  cpu time  154.2396: real time  156.7668
       DOS:  cpu time    0.0220: real time    0.1188
    --------------------------------------------
      LOOP:  cpu time  154.3605: real time  157.4460

 eigenvalue-minimisations  : 49680
 total energy-change (2. order) : 0.2781110E+04  (-0.1009927E+05)
 number of electron     337.0000000 magnetization 
 augmentation part      337.0000000 magnetization 

 Free energy of the ion-electron system (eV)
  ---------------------------------------------------
  alpha Z        PSCENC =      1680.34193752
  Ewald energy   TEWEN  =    -22981.34299205
  -Hartree energ DENC   =     -6537.96539077
  -exchange      EXHF   =         0.00000000
  -V(xc)+E(xc)   XCENC  =       228.27368952
  PAW double counting   =     23474.76194546   -24095.12296225
  entropy T*S    EENTRO =        -0.00315579
  eigenvalues    EBANDS =      5243.94019379
  atomic energy  EATOM  =     25768.22672671
  Solvation  Ediel_sol  =         0.00000000
  ---------------------------------------------------
  free energy    TOTEN  =      2781.10999215 eV

  energy without entropy =     2781.11314794  energy(sigma->0) =     2781.11104408


--------------------------------------------------------------------------------------------------------




--------------------------------------- Iteration      1(   2)  ---------------------------------------


     EDDAV:  cpu time  154.0316: real time  154.9497
       DOS:  cpu time    0.0260: real time    0.0263
    --------------------------------------------
      LOOP:  cpu time  154.0576: real time  154.9760

 eigenvalue-minimisations  : 49680
 total energy-change (2. order) :-0.2659949E+04  (-0.2368995E+04)
 number of electron     337.0000000 magnetization 
 augmentation part      337.0000000 magnetization 

 Free energy of the ion-electron system (eV)
  ---------------------------------------------------
  alpha Z        PSCENC =      1680.34193752
  Ewald energy   TEWEN  =    -22981.34299205
  -Hartree energ DENC   =     -6537.96539077
  -exchange      EXHF   =         0.00000000
  -V(xc)+E(xc)   XCENC  =       228.27368952
  PAW double counting   =     23474.76194546   -24095.12296225
  entropy T*S    EENTRO =         0.00173948
  eigenvalues    EBANDS =      2583.98646674
  atomic energy  EATOM  =     25768.22672671
  Solvation  Ediel_sol  =         0.00000000
  ---------------------------------------------------
  free energy    TOTEN  =       121.16116037 eV

  energy without entropy =      121.15942088  energy(sigma->0) =      121.16058054


--------------------------------------------------------------------------------------------------------




--------------------------------------- Iteration      1(   3)  ---------------------------------------


     EDDAV:  cpu time  154.1226: real time  154.8222
       DOS:  cpu time    0.0290: real time    0.0295
    --------------------------------------------
      LOOP:  cpu time  154.1516: real time  154.8517

 eigenvalue-minimisations  : 49712
 total energy-change (2. order) :-0.4339661E+03  (-0.3522938E+03)
 number of electron     337.0000000 magnetization 
 augmentation part      337.0000000 magnetization 

 Free energy of the ion-electron system (eV)
  ---------------------------------------------------
  alpha Z        PSCENC =      1680.34193752
  Ewald energy   TEWEN  =    -22981.34299205
  -Hartree energ DENC   =     -6537.96539077
  -exchange      EXHF   =         0.00000000
  -V(xc)+E(xc)   XCENC  =       228.27368952
  PAW double counting   =     23474.76194546   -24095.12296225
  entropy T*S    EENTRO =        -0.08532359
  eigenvalues    EBANDS =      2150.10746999
  atomic energy  EATOM  =     25768.22672671
  Solvation  Ediel_sol  =         0.00000000
  ---------------------------------------------------
  free energy    TOTEN  =      -312.80489945 eV

  energy without entropy =     -312.71957586  energy(sigma->0) =     -312.77645826


--------------------------------------------------------------------------------------------------------




--------------------------------------- Iteration      1(   4)  ---------------------------------------


     EDDAV:  cpu time  180.6605: real time  181.3939
       DOS:  cpu time    0.0320: real time    0.0318
    --------------------------------------------
      LOOP:  cpu time  180.6925: real time  181.4256

 eigenvalue-minimisations  : 60896
 total energy-change (2. order) :-0.3281766E+02  (-0.3127163E+02)
 number of electron     337.0000000 magnetization 
 augmentation part      337.0000000 magnetization 

 Free energy of the ion-electron system (eV)
  ---------------------------------------------------
  alpha Z        PSCENC =      1680.34193752
  Ewald energy   TEWEN  =    -22981.34299205
  -Hartree energ DENC   =     -6537.96539077
  -exchange      EXHF   =         0.00000000
  -V(xc)+E(xc)   XCENC  =       228.27368952
  PAW double counting   =     23474.76194546   -24095.12296225
  entropy T*S    EENTRO =        -0.09979004
  eigenvalues    EBANDS =      2117.30427546
  atomic energy  EATOM  =     25768.22672671
  Solvation  Ediel_sol  =         0.00000000
  ---------------------------------------------------
  free energy    TOTEN  =      -345.62256043 eV

  energy without entropy =     -345.52277039  energy(sigma->0) =     -345.58929709


--------------------------------------------------------------------------------------------------------




--------------------------------------- Iteration      1(   5)  ---------------------------------------


     EDDAV:  cpu time  178.6738: real time  179.3147
       DOS:  cpu time    0.0320: real time    0.0312
    CHARGE:  cpu time    2.7766: real time    2.9289
    MIXING:  cpu time    0.0050: real time    0.0312
    --------------------------------------------
      LOOP:  cpu time  181.4874: real time  182.3061

 eigenvalue-minimisations  : 60152
 total energy-change (2. order) :-0.8237142E+00  (-0.8218558E+00)
 number of electron     337.0000287 magnetization 
 augmentation part      122.2373023 magnetization 

 Broyden mixing:
  rms(total) = 0.62127E+01    rms(broyden)= 0.62126E+01
  rms(prec ) = 0.75271E+01
  weight for this iteration     100.00

 Free energy of the ion-electron system (eV)
  ---------------------------------------------------
  alpha Z        PSCENC =      1680.34193752
  Ewald energy   TEWEN  =    -22981.34299205
  -Hartree energ DENC   =     -6537.96539077
  -exchange      EXHF   =         0.00000000
  -V(xc)+E(xc)   XCENC  =       228.27368952
  PAW double counting   =     23474.76194546   -24095.12296225
  entropy T*S    EENTRO =        -0.09986096
  eigenvalues    EBANDS =      2116.48063220
  atomic energy  EATOM  =     25768.22672671
  Solvation  Ediel_sol  =         0.00000000
  ---------------------------------------------------
  free energy    TOTEN  =      -346.44627462 eV

  energy without entropy =     -346.34641366  energy(sigma->0) =     -346.41298763


--------------------------------------------------------------------------------------------------------




--------------------------------------- Iteration      1(   6)  ---------------------------------------


    POTLOK:  cpu time    0.0640: real time    0.0719
    SETDIJ:  cpu time    0.0120: real time    0.0121
     EDDAV:  cpu time  196.6161: real time  197.2665
       DOS:  cpu time    0.0320: real time    0.0312
    CHARGE:  cpu time    2.5606: real time    2.5742
    MIXING:  cpu time    0.0040: real time    0.2250
    --------------------------------------------
      LOOP:  cpu time  199.2887: real time  200.1809

 eigenvalue-minimisations  : 67232
 total energy-change (2. order) :-0.2504397E+01  (-0.1542053E+02)
 number of electron     337.0000337 magnetization 
 augmentation part      162.7697721 magnetization 

 Broyden mixing:
  rms(total) = 0.75603E+01    rms(broyden)= 0.75602E+01
  rms(prec ) = 0.10331E+02
  weight for this iteration     100.00

 eigenvalues of (default mixing * dielectric matrix)
  average eigenvalue GAMMA=   0.4315
  0.4315

 Free energy of the ion-electron system (eV)
  ---------------------------------------------------
  alpha Z        PSCENC =      1680.34193752
[...]
    335      24.6344      0.00000
    336      24.6344      0.00000
    337      24.6390      0.00000
    338      24.7820      0.00000
    339      24.9644      0.00000
    340      24.9644      0.00000
    341      24.9663      0.00000
    342      25.3595      0.00000
    343      25.3595      0.00000
    344      25.5511      0.00000
    345      25.6134      0.00000
    346      25.6134      0.00000
    347      25.7740      0.00000
    348      25.7782      0.00000
    349      25.7782      0.00000
    350      26.0540      0.00000
    351      26.0540      0.00000
    352      26.0613      0.00000
    353      26.2386      0.00000
    354      26.2386      0.00000
    355      26.2468      0.00000
    356      26.3094      0.00000
    357      26.4048      0.00000
    358      26.4078      0.00000
    359      26.4078      0.00000
    360      26.8223      0.00000


--------------------------------------------------------------------------------------------------------


 soft charge-density along one line, spin component           1
         0         1         2         3         4         5         6         7         8         9
 total charge-density along one line
 
 pseudopotential strength for first ion, spin component:           1
 -1.182   0.004  -0.001   0.003   0.001  -1.838   0.003  -0.001
  0.004  -1.171   0.001   0.001  -0.001   0.003  -1.827   0.001
 -0.001   0.001  -1.186   0.002  -0.000  -0.001   0.001  -1.842
  0.003   0.001   0.002  -1.169   0.004   0.003   0.001   0.002
  0.001  -0.001  -0.000   0.004  -1.183   0.001  -0.001  -0.000
 -1.838   0.003  -0.001   0.003   0.001  -2.423   0.003  -0.001
  0.003  -1.827   0.001   0.001  -0.001   0.003  -2.412   0.001
 -0.001   0.001  -1.842   0.002  -0.000  -0.001   0.001  -2.427
  0.003   0.001   0.002  -1.825   0.003   0.003   0.001   0.002
  0.001  -0.001  -0.000   0.003  -1.839   0.001  -0.001  -0.000
 -0.000  -0.000  -0.002  -0.001  -0.000  -0.000  -0.000  -0.002
 -0.000  -0.001  -0.003  -0.001  -0.000  -0.000  -0.001  -0.003
 -0.000  -0.000  -0.000  -0.000  -0.002  -0.000  -0.000  -0.000
 -0.000  -0.000  -0.000  -0.000  -0.000  -0.000  -0.000  -0.000
 -0.002  -0.000  -0.000  -0.000  -0.000  -0.002  -0.000  -0.000
 -0.000  -0.000  -0.000  -0.000  -0.001  -0.000  -0.000  -0.000
 -0.000  -0.000  -0.000  -0.000  -0.000  -0.000  -0.000  -0.000
 -0.001  -0.000  -0.000  -0.001  -0.000  -0.001  -0.000  -0.000
 total augmentation occupancy for first ion, spin component:           1
  2.781   0.015   0.005   0.056   0.037  -1.432  -0.009  -0.005  -0.038  -0.026   0.008   0.001   0.002  -0.004   0.107  -0.000
  0.015   2.416  -0.007   0.022   0.039  -0.009  -0.896   0.006  -0.014  -0.028   0.002  -0.000  -0.001  -0.001  -0.006  -0.000
  0.005  -0.007   3.280  -0.013   0.003  -0.005   0.006  -1.893   0.011  -0.003   0.394  -0.014  -0.002   0.008  -0.003   0.000
  0.056   0.022  -0.013   2.441   0.015  -0.038  -0.014   0.011  -0.912  -0.009   0.004  -0.000  -0.006  -0.002  -0.008   0.000
  0.037   0.039   0.003   0.015   2.738  -0.026  -0.027  -0.003  -0.009  -1.403   0.005   0.000   0.105  -0.002   0.002  -0.043
 -1.432  -0.009  -0.005  -0.038  -0.026   1.871   0.005   0.005   0.025   0.018  -0.009  -0.000  -0.003   0.001  -0.116   0.000
 -0.009  -0.896   0.006  -0.014  -0.027   0.005   1.164  -0.005   0.008   0.019  -0.004   0.000  -0.001  -0.000   0.003   0.000
 -0.005   0.006  -1.893   0.011  -0.003   0.005  -0.005   2.296  -0.009   0.003  -0.363   0.028   0.002  -0.005   0.003  -0.000
 -0.038  -0.014   0.011  -0.912  -0.009   0.025   0.008  -0.009   1.173   0.005  -0.007   0.001   0.003  -0.001   0.002  -0.000
 -0.026  -0.028  -0.003  -0.009  -1.403   0.018   0.019   0.003   0.005   1.851  -0.005  -0.000  -0.113   0.001  -0.003   0.036
  0.008   0.002   0.394   0.004   0.005  -0.009  -0.004  -0.363  -0.007  -0.005   2.493  -0.426  -0.003  -0.003  -0.005   0.000
  0.001  -0.000  -0.014  -0.000   0.000  -0.000   0.000   0.028   0.001  -0.000  -0.426   0.091   0.000   0.000   0.000  -0.000
  0.002  -0.001  -0.002  -0.006   0.105  -0.003  -0.001   0.002   0.003  -0.113  -0.003   0.000   0.378  -0.001  -0.002  -0.045
 -0.004  -0.001   0.008  -0.002  -0.002   0.001  -0.000  -0.005  -0.001   0.001  -0.003   0.000  -0.001   0.310  -0.001   0.000
  0.107  -0.006  -0.003  -0.008   0.002  -0.116   0.003   0.003   0.002  -0.003  -0.005   0.000  -0.002  -0.001   0.376   0.000
 -0.000  -0.000   0.000   0.000  -0.043   0.000   0.000  -0.000  -0.000   0.036   0.000  -0.000  -0.045   0.000   0.000   0.007
  0.000   0.000  -0.000   0.000   0.000  -0.000   0.000   0.000   0.000  -0.000   0.000  -0.000  -0.000  -0.039  -0.000   0.000
 -0.043   0.000   0.000   0.000  -0.000   0.036  -0.000  -0.000  -0.000   0.000   0.000  -0.000   0.000   0.000  -0.045   0.000


------------------------ aborting loop because EDIFF is reached ----------------------------------------


    CHARGE:  cpu time    2.6386: real time    2.6425
    FORLOC:  cpu time    0.0210: real time    0.0454
    FORNL :  cpu time   52.6000: real time   52.8363
    STRESS:  cpu time   90.9722: real time   91.2875
    FORCOR:  cpu time    0.0860: real time    0.1370
    FORHAR:  cpu time    0.0340: real time    0.0515
    MIXING:  cpu time    0.0030: real time    0.0035
    OFIELD:  cpu time    0.0010: real time    0.0049

  FORCE on cell =-STRESS in cart. coord.  units (eV):
  Direction    XX          YY          ZZ          XY          YZ          ZX
  --------------------------------------------------------------------------------------
  Alpha Z  1680.34194  1680.34194  1680.34194
  Ewald   -7552.71999 -7552.71999 -7876.01137    -0.00001     0.00000     0.00000
  Hartree  2050.67131  2050.67131  1943.48939    -0.00000     0.00000    -0.00000
  E(xc)   -1646.61947 -1646.61947 -1642.64752    -0.00000    -0.00000     0.00000
  Local    -498.33838  -498.33971   -77.10795    -0.00115    -0.00000     0.00000
  n-local  -261.00264  -258.28585  -230.88639    -1.28157    -0.17873    -1.07940
  augment  3309.16979  3309.17072  3300.47780     0.00081    -0.00000     0.00000
  Kinetic  2916.47311  2917.58841  2902.27868    -2.61842     0.14739     0.29252
  Fock        0.00000     0.00000     0.00000     0.00000     0.00000     0.00000
  -------------------------------------------------------------------------------------
  Total      -0.10849    -0.10849    -0.06542     0.00000    -0.00000     0.00000
  in kB      -0.30411    -0.30411    -0.18338     0.00000    -0.00000     0.00000
  external pressure =       -0.26 kB  Pullay stress =        0.00 kB


 VOLUME and BASIS-vectors are now :
 -----------------------------------------------------------------------------
  energy-cutoff  :      450.00
  volume of cell :      571.57
      direct lattice vectors                 reciprocal lattice vectors
     8.130228106  0.000000000  0.000000000     0.122997779  0.071012801  0.000000000
    -4.065114053  7.040984078  0.000000000     0.000000000  0.142025602  0.000000000
     0.000000000  0.000000000  9.984581369     0.000000000  0.000000000  0.100154424

  length of vectors
     8.130228106  8.130228106  9.984581369     0.142025602  0.142025602  0.100154424


 FORCES acting on ions
    electron-ion (+dipol)            ewald-force                    non-local-force                 convergence-correction
 -----------------------------------------------------------------------------------------------
   0.127E+02 0.732E+01 0.962E+01   -.127E+02 -.733E+01 -.965E+01   0.100E+00 0.578E-01 0.372E-01   -.159E-03 -.916E-04 0.723E-02
   -.127E+02 -.732E+01 -.962E+01   0.127E+02 0.733E+01 0.965E+01   -.100E+00 -.578E-01 -.372E-01   0.159E-03 0.916E-04 -.723E-02
   -.127E+02 0.732E+01 0.962E+01   0.127E+02 -.733E+01 -.965E+01   -.100E+00 0.578E-01 0.372E-01   0.159E-03 -.916E-04 0.723E-02
   0.127E+02 -.732E+01 -.962E+01   -.127E+02 0.733E+01 0.965E+01   0.100E+00 -.578E-01 -.372E-01   -.159E-03 0.916E-04 -.723E-02
   0.252E-05 -.146E+02 0.962E+01   0.112E-05 0.147E+02 -.965E+01   0.173E-17 -.116E+00 0.372E-01   0.119E-08 0.183E-03 0.723E-02
   -.286E-05 0.146E+02 -.962E+01   -.680E-06 -.147E+02 0.965E+01   -.347E-17 0.116E+00 -.372E-01   -.295E-09 -.183E-03 -.723E-02
   -.274E-05 0.212E+01 0.430E+01   -.680E-06 -.214E+01 -.430E+01   0.108E-18 0.160E-01 -.512E-02   -.424E-08 -.529E-02 0.682E-02
   0.881E-06 -.212E+01 -.430E+01   -.894E-05 0.214E+01 0.430E+01   0.217E-18 -.160E-01 0.512E-02   0.680E-08 0.529E-02 -.682E-02
   -.184E+01 -.106E+01 0.430E+01   0.185E+01 0.107E+01 -.430E+01   -.138E-01 -.799E-02 -.512E-02   0.458E-02 0.264E-02 0.682E-02
   0.184E+01 0.106E+01 -.430E+01   -.185E+01 -.107E+01 0.430E+01   0.138E-01 0.799E-02 0.512E-02   -.458E-02 -.264E-02 -.682E-02
   0.184E+01 -.106E+01 0.430E+01   -.185E+01 0.107E+01 -.430E+01   0.138E-01 -.799E-02 -.512E-02   -.458E-02 0.264E-02 0.682E-02
   -.184E+01 0.106E+01 -.430E+01   0.185E+01 -.107E+01 0.430E+01   -.138E-01 0.799E-02 0.512E-02   0.458E-02 -.264E-02 -.682E-02
   -.273E-05 0.136E-05 0.271E+01   -.680E-06 0.227E-05 -.267E+01   0.434E-18 -.759E-18 -.510E-01   0.250E-08 -.579E-07 0.702E-02
   0.869E-06 -.316E-05 -.271E+01   -.894E-05 -.933E-05 0.267E+01   -.293E-17 0.119E-17 0.510E-01   0.529E-10 0.422E-07 -.702E-02
   0.236E-05 -.179E-05 0.321E+01   0.116E-05 -.152E-06 -.327E+01   0.922E-18 -.542E-19 0.579E-01   -.250E-08 0.208E-07 0.437E-02
   -.274E-05 0.134E-05 -.321E+01   -.680E-06 0.228E-05 0.327E+01   -.469E-17 0.542E-19 -.579E-01   0.338E-08 -.584E-07 -.437E-02
   0.723E+00 0.417E+00 0.172E+01   -.740E+00 -.427E+00 -.172E+01   0.117E-01 0.673E-02 -.158E-02   -.185E-02 -.107E-02 0.280E-02
   -.723E+00 -.417E+00 -.172E+01   0.740E+00 0.427E+00 0.172E+01   -.117E-01 -.673E-02 0.158E-02   0.185E-02 0.107E-02 -.280E-02
   -.723E+00 0.417E+00 0.172E+01   0.740E+00 -.427E+00 -.172E+01   -.117E-01 0.673E-02 -.158E-02   0.185E-02 -.107E-02 0.280E-02
   0.723E+00 -.417E+00 -.172E+01   -.740E+00 0.427E+00 0.172E+01   0.117E-01 -.673E-02 0.158E-02   -.185E-02 0.107E-02 -.280E-02
   -.759E-06 -.835E+00 0.172E+01   0.327E-06 0.854E+00 -.172E+01   0.867E-18 -.135E-01 -.158E-02   0.101E-08 0.213E-02 0.280E-02
   0.750E-06 0.835E+00 -.172E+01   -.625E-06 -.854E+00 0.172E+01   0.000E+00 0.135E-01 0.158E-02   -.522E-09 -.213E-02 -.280E-02
   0.786E-06 0.581E+01 0.381E+01   -.433E-06 -.587E+01 -.386E+01   0.000E+00 0.115E+00 0.763E-01   0.128E-08 -.164E-03 0.287E-02
   -.759E-06 -.581E+01 -.381E+01   0.318E-06 0.587E+01 0.386E+01   0.000E+00 -.115E+00 -.763E-01   -.100E-08 0.164E-03 -.287E-02
   -.503E+01 -.290E+01 0.381E+01   0.508E+01 0.293E+01 -.386E+01   -.993E-01 -.573E-01 0.763E-01   0.142E-03 0.818E-04 0.287E-02
   0.503E+01 0.290E+01 -.381E+01   -.508E+01 -.293E+01 0.386E+01   0.993E-01 0.573E-01 -.763E-01   -.142E-03 -.818E-04 -.287E-02
   0.503E+01 -.290E+01 0.381E+01   -.508E+01 0.293E+01 -.386E+01   0.993E-01 -.573E-01 0.763E-01   -.142E-03 0.818E-04 0.287E-02
   -.503E+01 0.290E+01 -.381E+01   0.508E+01 -.293E+01 0.386E+01   -.993E-01 0.573E-01 -.763E-01   0.142E-03 -.818E-04 -.287E-02
   0.778E-06 -.353E-06 0.128E+01   -.433E-06 0.683E-06 -.131E+01   -.434E-18 -.173E-17 -.575E-02   -.298E-09 -.128E-07 0.167E-02
   -.764E-06 0.406E-06 -.128E+01   0.332E-06 -.655E-06 0.131E+01   -.173E-17 0.173E-17 0.575E-02   0.569E-09 0.939E-08 -.167E-02
   -.762E-06 0.408E-06 0.107E+01   0.329E-06 -.657E-06 -.107E+01   0.217E-17 0.000E+00 0.532E-02   0.151E-08 0.884E-08 0.266E-02
   0.751E-06 -.190E-06 -.107E+01   -.625E-06 0.175E-05 0.107E+01   -.173E-17 0.000E+00 -.532E-02   -.102E-08 -.241E-07 -.266E-02
   0.589E-06 0.309E-06 0.117E-10   0.233E-05 -.770E-06 -.911E-13   0.265E-22 0.000E+00 0.000E+00   -.418E-07 0.496E-10 -.133E-11
   -.311E-06 0.829E-06 -.534E-06   -.376E-05 0.274E-05 -.360E-05   0.000E+00 0.000E+00 0.000E+00   0.107E-08 -.247E-07 0.124E-07
   0.950E-08 0.309E-06 -.172E-10   -.158E-05 -.770E-06 0.830E-13   -.827E-23 0.000E+00 0.000E+00   0.403E-07 0.583E-10 0.258E-11
   -.652E-02 0.376E-02 0.335E+01   -.556E-07 -.770E-06 -.335E+01   -.821E-02 0.474E-02 -.282E-03   -.155E-03 0.895E-04 0.575E-02
   0.652E-02 -.376E-02 -.335E+01   0.233E-05 -.770E-06 0.335E+01   0.821E-02 -.474E-02 0.282E-03   0.155E-03 -.895E-04 -.575E-02
   0.164E-06 -.753E-02 0.335E+01   -.536E-06 -.493E-06 -.335E+01   0.108E-18 -.948E-02 -.282E-03   0.312E-08 -.179E-03 0.575E-02
   -.311E-06 0.753E-02 -.335E+01   -.376E-05 0.274E-05 0.335E+01   -.434E-18 0.948E-02 0.282E-03   -.170E-08 0.179E-03 -.575E-02
   0.652E-02 0.376E-02 0.335E+01   -.747E-06 -.770E-06 -.335E+01   0.821E-02 0.474E-02 -.282E-03   0.155E-03 0.895E-04 0.575E-02
   -.652E-02 -.376E-02 -.335E+01   -.158E-05 -.770E-06 0.335E+01   -.821E-02 -.474E-02 0.282E-03   -.155E-03 -.895E-04 -.575E-02
   -.311E-06 -.211E-06 0.534E-06   -.376E-05 -.428E-05 0.360E-05   -.265E-22 0.000E+00 0.000E+00   0.108E-08 0.248E-07 -.124E-07
   0.152E-06 0.253E-06 0.152E+02   -.536E-06 -.105E-05 -.153E+02   -.434E-18 -.173E-17 -.129E+00   -.286E-09 0.152E-07 0.109E-01
   -.298E-06 -.196E-06 -.152E+02   -.376E-05 -.428E-05 0.153E+02   0.434E-18 0.173E-17 0.129E+00   0.172E-08 0.244E-07 -.109E-01
   0.236E-06 0.309E-06 -.203E-11   -.556E-07 -.770E-06 0.462E-13   -.165E-23 0.000E+00 0.000E+00   -.252E-07 0.520E-10 0.126E-11
   0.165E-06 0.350E-06 0.885E-07   -.536E-06 -.493E-06 0.598E-06   0.000E+00 0.000E+00 0.000E+00   0.340E-09 -.147E-07 -.107E-07
   0.133E-06 0.309E-06 -.461E-10   -.747E-06 -.770E-06 0.426E-13   0.000E+00 0.000E+00 0.000E+00   0.248E-07 0.577E-10 0.194E-11
   0.188E-06 0.306E-06 -.101E-06   -.613E-06 -.120E-05 -.683E-06   0.000E+00 0.000E+00 0.000E+00   0.418E-09 0.173E-07 0.126E-07
 -----------------------------------------------------------------------------------------------
   -.615E-05 0.113E-05 -.989E-07   -.137E-12 0.729E-13 -.639E-13   -.156E-16 0.278E-16 0.278E-16   0.211E-09 0.272E-08 0.191E-08
 
 
 POSITION                                       TOTAL-FORCE (eV/Angst)
 -----------------------------------------------------------------------------------
      2.03256      5.86749      3.74422         0.073035      0.042167      0.016607
      2.03256      1.17350      6.24036        -0.073035     -0.042167     -0.016607
     -2.03256      5.86749      3.74422        -0.073035      0.042167      0.016607
      6.09767      1.17350      6.24036         0.073035     -0.042167     -0.016607
     -0.00000      2.34699      3.74422        -0.000000     -0.084334      0.016607
      4.06511      4.69399      6.24036         0.000000      0.084334     -0.016607
      4.06511      4.69399      1.24807         0.000000     -0.004445     -0.003631
     -0.00000      2.34699      8.73651         0.000000      0.004445      0.003631
      2.03256      1.17350      1.24807         0.003849      0.002222     -0.003631
      2.03256      5.86749      8.73651        -0.003849     -0.002222      0.003631
      6.09767      1.17350      1.24807        -0.003849      0.002222     -0.003631
     -2.03256      5.86749      8.73651         0.003849     -0.002222      0.003631
      0.00000      4.69399      1.24807         0.000000      0.000000     -0.006575
      4.06511      2.34699      8.73651         0.000000      0.000000      0.006575
      4.06511      2.34699      3.74422         0.000000      0.000000      0.003257
      0.00000      4.69399      6.24036         0.000000      0.000000     -0.003257
      2.03256      5.86749      1.24807        -0.006928     -0.004000      0.002714
      2.03256      1.17350      8.73651         0.006928      0.004000     -0.002714
     -2.03256      5.86749      1.24807         0.006928     -0.004000      0.002714
      6.09767      1.17350      8.73651        -0.006928      0.004000     -0.002714
     -0.00000      2.34699      1.24807         0.000000      0.008000      0.002714
      4.06511      4.69399      8.73651         0.000000     -0.008000     -0.002714
      4.06511      4.69399      3.74422        -0.000000      0.054820      0.030920
     -0.00000      2.34699      6.24036         0.000000     -0.054820     -0.030920
      2.03256      1.17350      3.74422        -0.047475     -0.027410      0.030920
      2.03256      5.86749      6.24036         0.047475      0.027410     -0.030920
      6.09767      1.17350      3.74422         0.047475     -0.027410      0.030920
     -2.03256      5.86749      6.24036        -0.047475      0.027410     -0.030920
      0.00000      4.69399      3.74422         0.000000      0.000000     -0.029563
      4.06511      2.34699      6.24036         0.000000      0.000000      0.029563
      4.06511      2.34699      1.24807         0.000000      0.000000      0.012201
      0.00000      4.69399      8.73651         0.000000      0.000000     -0.012201
      2.03256      3.52049      0.00000         0.000000      0.000000     -0.000000
      4.06511      0.00000      0.00000         0.000000      0.000000     -0.000000
     -2.03256      3.52049      0.00000         0.000000      0.000000     -0.000000
      2.03256      3.52049      2.49615        -0.014884      0.008593      0.005573
      2.03256      3.52049      7.48844         0.014884     -0.008593     -0.005573
      4.06511      0.00000      2.49615        -0.000000     -0.017186      0.005573
      4.06511      0.00000      7.48844         0.000000      0.017186     -0.005573
     -2.03256      3.52049      2.49615         0.014884      0.008593      0.005573
     -2.03256      3.52049      7.48844        -0.014884     -0.008593     -0.005573
      0.00000      0.00000      0.00000         0.000000      0.000000     -0.000000
      0.00000      0.00000      2.49615         0.000000      0.000000     -0.259224
      0.00000      0.00000      7.48844         0.000000      0.000000      0.259224
      2.03256      3.52049      4.99229         0.000000      0.000000     -0.000000
      4.06511      0.00000      4.99229         0.000000      0.000000     -0.000000
     -2.03256      3.52049      4.99229         0.000000      0.000000     -0.000000
      0.00000      0.00000      4.99229         0.000000      0.000000     -0.000000
 -----------------------------------------------------------------------------------
    total drift:                               -0.000006      0.000001     -0.000000


--------------------------------------------------------------------------------------------------------



  FREE ENERGIE OF THE ION-ELECTRON SYSTEM (eV)
  ---------------------------------------------------
  free  energy   TOTEN  =      -304.90735559 eV

  energy  without entropy=     -304.80977415  energy(sigma->0) =     -304.87482844
 


--------------------------------------------------------------------------------------------------------


    POTLOK:  cpu time    0.0810: real time    0.1420


--------------------------------------------------------------------------------------------------------


     LOOP+:  cpu time 5685.2957: real time 5722.3730
    4ORBIT:  cpu time    0.0000: real time    0.0000

 total amount of memory used by VASP MPI-rank0   346771. kBytes
=======================================================================

   base      :      30000. kBytes
   nonl-proj :      84589. kBytes
   fftplans  :       3798. kBytes
   grid      :       7284. kBytes
   one-center:        124. kBytes
   wavefun   :     220976. kBytes
 
  
  
 General timing and accounting informations for this job:
 ========================================================
  
                  Total CPU time used (sec):     5734.000
                            User time (sec):     5718.324
                          System time (sec):       15.676
                         Elapsed time (sec):     5778.270
  
                   Maximum memory used (kb):      436972.
                   Average memory used (kb):           0.
  
                          Minor page faults:        44055
                          Major page faults:          680
                 Voluntary context switches:         6974
