 running on   24 total cores
 distrk:  each k-point on   24 cores,    1 groups
 distr:  one band on    6 cores,    4 groups
 using from now: INCAR     
 vasp.6.1.1 19Jun20 (build Nov 30 2020 11:51:22) complex                        
  
 POSCAR found type information on POSCAR MnNiGeFe
 POSCAR found :  4 types and      48 ions
 scaLAPACK will be used
 -----------------------------------------------------------------------------
|                                                                             |
|               ----> ADVICE to this user running VASP <----                  |
|                                                                             |
|     You have a (more or less) 'large supercell' and for larger cells it     |
|     might be more efficient to use real-space projection operators.         |
|     Therefore, try LREAL= Auto in the INCAR file.                           |
|     Mind: For very accurate calculation, you might also keep the            |
|     reciprocal projection scheme (i.e. LREAL=.FALSE.).                      |
|                                                                             |
 -----------------------------------------------------------------------------

 LDA part: xc-table for Pade appr. of Perdew
 POSCAR, INCAR and KPOINTS ok, starting setup
 FFT: planning ...
 WAVECAR not read
 entering main loop
       N       E                     dE             d eps       ncg     rms          rms(c)
DAV:   1     0.271211088640E+04    0.27121E+04   -0.11042E+05 86400   0.102E+03
DAV:   2     0.141649949137E+03   -0.25705E+04   -0.22942E+04 86400   0.259E+02
DAV:   3    -0.274264039146E+03   -0.41591E+03   -0.34327E+03 86568   0.120E+02
DAV:   4    -0.303030092595E+03   -0.28766E+02   -0.27634E+02106560   0.370E+01
DAV:   5    -0.303773689687E+03   -0.74360E+00   -0.74198E+00103216   0.621E+00    0.968E+01
DAV:   6    -0.403686833995E+03   -0.99913E+02   -0.26849E+02109024   0.118E+02    0.127E+02
DAV:   7    -0.303850991674E+03    0.99836E+02   -0.17748E+02106432   0.798E+01    0.673E+01
DAV:   8    -0.340385475620E+03   -0.36534E+02   -0.59963E+01115960   0.475E+01    0.104E+02
DAV:   9    -0.322667050178E+03    0.17718E+02   -0.38735E+01124120   0.356E+01    0.521E+01
DAV:  10    -0.329582777696E+03   -0.69157E+01   -0.40692E+01119384   0.717E+01    0.889E+01
DAV:  11    -0.301584076656E+03    0.27999E+02   -0.35530E+01126280   0.473E+01    0.314E+01
DAV:  12    -0.303678689444E+03   -0.20946E+01   -0.11617E+01125008   0.381E+01    0.279E+01
DAV:  13    -0.306859754859E+03   -0.31811E+01   -0.76783E+00125152   0.247E+01    0.205E+01
DAV:  14    -0.310604733328E+03   -0.37450E+01   -0.55724E+00118416   0.250E+01    0.209E+01
DAV:  15    -0.311072275323E+03   -0.46754E+00   -0.42609E+00116392   0.182E+01    0.931E+00
DAV:  16    -0.312462320064E+03   -0.13900E+01   -0.24499E+00117072   0.142E+01    0.116E+01
DAV:  17    -0.312417021697E+03    0.45298E-01   -0.17041E+00112224   0.119E+01    0.710E+00
DAV:  18    -0.312445969306E+03   -0.28948E-01   -0.74781E-01115992   0.803E+00    0.614E+00
DAV:  19    -0.312271208125E+03    0.17476E+00   -0.31419E-01118368   0.472E+00    0.240E+00
DAV:  20    -0.312310385728E+03   -0.39178E-01   -0.16628E-01113088   0.269E+00    0.252E+00
DAV:  21    -0.312318056364E+03   -0.76706E-02   -0.96643E-02114000   0.290E+00    0.199E+00
DAV:  22    -0.312315817478E+03    0.22389E-02   -0.31068E-02110784   0.130E+00    0.110E+00
DAV:  23    -0.312321058471E+03   -0.52410E-02   -0.21414E-02119184   0.145E+00    0.134E+00
DAV:  24    -0.312317280105E+03    0.37784E-02   -0.11096E-02125832   0.989E-01    0.100E+00
DAV:  25    -0.312315821306E+03    0.14588E-02   -0.56687E-03114896   0.594E-01    0.575E-01
DAV:  26    -0.312315175877E+03    0.64543E-03   -0.29880E-03134768   0.429E-01    0.440E-01
DAV:  27    -0.312315402472E+03   -0.22659E-03   -0.87022E-04114808   0.211E-01    0.353E-01
DAV:  28    -0.312315371154E+03    0.31318E-04   -0.37170E-04117824   0.149E-01    0.316E-01
DAV:  29    -0.312315223646E+03    0.14751E-03   -0.15427E-04117168   0.883E-02    0.219E-01
DAV:  30    -0.312315226470E+03   -0.28237E-05   -0.10720E-04155664   0.521E-02    0.183E-01
DAV:  31    -0.312315210824E+03    0.15646E-04   -0.19903E-05119448   0.407E-02    0.154E-01
DAV:  32    -0.312315203042E+03    0.77823E-05   -0.65129E-06139096   0.230E-02    0.115E-01
DAV:  33    -0.312315199029E+03    0.40133E-05   -0.75182E-06122104   0.277E-02    0.926E-02
DAV:  34    -0.312315191584E+03    0.74443E-05   -0.56750E-06123344   0.280E-02    0.533E-02
DAV:  35    -0.312315192752E+03   -0.11679E-05   -0.90687E-06122856   0.134E-02    0.379E-02
DAV:  36    -0.312315192369E+03    0.38296E-06   -0.27832E-06 67280   0.958E-03
   1 F= -.31231519E+03 E0= -.31234336E+03  d E =0.845043E-01  mag=    48.6807
