 vasp.6.1.1 19Jun20 (build Nov 30 2020 11:51:22) complex                        
  
 executed on             LinuxIFC date 2021.03.24  01:45:04
 running on   24 total cores
 distrk:  each k-point on   24 cores,    1 groups
 distr:  one band on NCORE=   6 cores,    4 groups


--------------------------------------------------------------------------------------------------------


 INCAR:
 POTCAR:    PAW_PBE Mn 06Sep2000                  
 POTCAR:    PAW_PBE Ni 02Aug2007                  
 POTCAR:    PAW_PBE Ge 05Jan2001                  
 POTCAR:    PAW_PBE Fe 06Sep2000                  
 POTCAR:    PAW_PBE Mn 06Sep2000                  
   SHA256 =  791c87526310ff945dc83749a51ee60ee299d345ff72743aeb14609b9ed68bfc Mn/POTCAR             
   COPYR  = (c) Copyright 06Sep2000 Georg Kresse                                                    
   COPYR  = This file is part of the software VASP. Any use, copying, and all other rights are regul
   COPYR  = If you do not have a valid VASP license, you may not use, copy or distribute this file. 
   VRHFIN =Mn: d6 s1                                                                                
   LEXCH  = PE                                                                                      
   EATOM  =   416.7541 eV,   30.6306 Ry                                                             
                                                                                                    
   TITEL  = PAW_PBE Mn 06Sep2000                                                                    
   LULTRA =        F    use ultrasoft PP ?                                                          
   IUNSCR =        1    unscreen: 0-lin 1-nonlin 2-no                                               
   RPACOR =    2.000    partial core radius                                                         
   POMASS =   54.938; ZVAL   =    7.000    mass and valenz                                          
   RCORE  =    2.300    outmost cutoff radius                                                       
   RWIGS  =    2.500; RWIGS  =    1.323    wigner-seitz radius (au A)                               
   ENMAX  =  269.864; ENMIN  =  202.398 eV                                                          
   RCLOC  =    1.725    cutoff for local pot                                                        
   LCOR   =        T    correct aug charges                                                         
   LPAW   =        T    paw PP                                                                      
   EAUG   =  500.711                                                                                
   DEXC   =    0.000                                                                                
   RMAX   =    2.343    core radius for proj-oper                                                   
   RAUG   =    1.300    factor for augmentation sphere                                              
   RDEP   =    2.338    radius for radial grids                                                     
   RDEPT  =    1.911    core radius for aug-charge                                                  
                                                                                                    
   Atomic configuration                                                                             
    9 entries                                                                                       
     n  l   j            E        occ.                                                              
     1  0  0.50     -6424.8288   2.0000                                                             
     2  0  0.50      -739.1154   2.0000                                                             
     2  1  1.50      -625.3949   6.0000                                                             
     3  0  0.50       -81.6100   2.0000                                                             
     3  1  1.50       -50.4667   6.0000                                                             
     3  2  2.50        -3.3745   6.0000                                                             
     4  0  0.50        -4.1331   1.0000                                                             
     4  1  0.50        -4.0817   0.0000                                                             
     4  3  2.50        -1.3606   0.0000                                                             
   Description                                                                                      
     l       E           TYP  RCUT    TYP  RCUT                                                     
     2     -3.3744664     23  2.300                                                                 
     2     -4.7350490     23  2.300                                                                 
     0     -4.1331408     23  2.300                                                                 
     0      7.6656614     23  2.300                                                                 
     1     -2.7211652     23  2.300                                                                 
     1     20.4087390     23  2.300                                                                 
  local pseudopotential read in
  partial core-charges read in
  partial kinetic energy density read in
  atomic valenz-charges read in
  non local Contribution for L=           2  read in
    real space projection operators read in
  non local Contribution for L=           2  read in
    real space projection operators read in
  non local Contribution for L=           0  read in
    real space projection operators read in
  non local Contribution for L=           0  read in
    real space projection operators read in
  non local Contribution for L=           1  read in
    real space projection operators read in
  non local Contribution for L=           1  read in
    real space projection operators read in
    PAW grid and wavefunctions read in
 
   number of l-projection  operators is LMAX  =           6
   number of lm-projection operators is LMMAX =          18
 
 POTCAR:    PAW_PBE Ni 02Aug2007                  
   SHA256 =  0534bc51ca8003dfef23f56753fef9fdd3e22eac8d719fccacb59f3e6b7a69c7 Ni/POTCAR             
   COPYR  = (c) Copyright 02Aug2007 Georg Kresse                                                    
   COPYR  = This file is part of the software VASP. Any use, copying, and all other rights are regul
   COPYR  = If you do not have a valid VASP license, you may not use, copy or distribute this file. 
   VRHFIN =Ni:                                                                                      
   LEXCH  = PE                                                                                      
   EATOM  =  1077.6739 eV,   79.2068 Ry                                                             
                                                                                                    
   TITEL  = PAW_PBE Ni 02Aug2007                                                                    
   LULTRA =        F    use ultrasoft PP ?                                                          
   IUNSCR =        1    unscreen: 0-lin 1-nonlin 2-no                                               
   RPACOR =    2.000    partial core radius                                                         
   POMASS =   58.690; ZVAL   =   10.000    mass and valenz                                          
   RCORE  =    2.300    outmost cutoff radius                                                       
   RWIGS  =    2.430; RWIGS  =    1.286    wigner-seitz radius (au A)                               
   ENMAX  =  269.532; ENMIN  =  202.149 eV                                                          
   RCLOC  =    1.201    cutoff for local pot                                                        
   LCOR   =        T    correct aug charges                                                         
   LPAW   =        T    paw PP                                                                      
   EAUG   =  544.565                                                                                
   DEXC   =    0.000                                                                                
   RMAX   =    2.357    core radius for proj-oper                                                   
   RAUG   =    1.300    factor for augmentation sphere                                              
   RDEP   =    2.390    radius for radial grids                                                     
   RDEPT  =    1.838    core radius for aug-charge                                                  
                                                                                                    
   Atomic configuration                                                                             
    9 entries                                                                                       
     n  l   j            E        occ.                                                              
     1  0  0.50     -8206.4253   2.0000                                                             
     2  0  0.50      -976.1748   2.0000                                                             
     2  1  1.50      -839.0571   6.0000                                                             
     3  0  0.50      -105.9991   2.0000                                                             
     3  1  1.50       -66.4603   6.0000                                                             
     3  2  2.50        -4.6458   9.0000                                                             
     4  0  0.50        -4.4926   1.0000                                                             
     4  1  1.50        -4.0817   0.0000                                                             
     4  3  2.50        -1.3606   0.0000                                                             
   Description                                                                                      
     l       E           TYP  RCUT    TYP  RCUT                                                     
     2     -4.6457903     23  2.300                                                                 
     2     -6.0063729     23  2.300                                                                 
     0     -4.4925590     23  2.300                                                                 
     0      5.0102601     23  2.300                                                                 
     1     -2.7211652     23  2.300                                                                 
     1     16.5183231     23  2.300                                                                 
  local pseudopotential read in
  partial core-charges read in
  partial kinetic energy density read in
  atomic valenz-charges read in
  non local Contribution for L=           2  read in
    real space projection operators read in
  non local Contribution for L=           2  read in
    real space projection operators read in
  non local Contribution for L=           0  read in
    real space projection operators read in
  non local Contribution for L=           0  read in
    real space projection operators read in
  non local Contribution for L=           1  read in
    real space projection operators read in
  non local Contribution for L=           1  read in
    real space projection operators read in
    PAW grid and wavefunctions read in
 
   number of l-projection  operators is LMAX  =           6
   number of lm-projection operators is LMMAX =          18
 
 POTCAR:    PAW_PBE Ge 05Jan2001                  
   SHA256 =  7ff11deedcda39f1950abeda971a84a1f98a719a97bc9679a0df455c008734f8 Ge/POTCAR             
   COPYR  = (c) Copyright 05Jan2001 Georg Kresse                                                    
   COPYR  = This file is part of the software VASP. Any use, copying, and all other rights are regul
   COPYR  = If you do not have a valid VASP license, you may not use, copy or distribute this file. 
   VRHFIN =Ge: s2p2                                                                                 
   LEXCH  = PE                                                                                      
   EATOM  =   104.9960 eV,    7.7170 Ry                                                             
                                                                                                    
   TITEL  = PAW_PBE Ge 05Jan2001                                                                    
   LULTRA =        F    use ultrasoft PP ?                                                          
   IUNSCR =        1    unscreen: 0-lin 1-nonlin 2-no                                               
   RPACOR =    2.170    partial core radius                                                         
   POMASS =   72.610; ZVAL   =    4.000    mass and valenz                                          
   RCORE  =    2.300    outmost cutoff radius                                                       
   RWIGS  =    2.300; RWIGS  =    1.217    wigner-seitz radius (au A)                               
   ENMAX  =  173.807; ENMIN  =  130.355 eV                                                          
   ICORE  =        3    local potential                                                             
   LCOR   =        T    correct aug charges                                                         
   LPAW   =        T    paw PP                                                                      
   EAUG   =  385.843                                                                                
   DEXC   =    0.000                                                                                
   RMAX   =    2.342    core radius for proj-oper                                                   
   RAUG   =    1.300    factor for augmentation sphere                                              
   RDEP   =    2.318    radius for radial grids                                                     
   RDEPT  =    2.103    core radius for aug-charge                                                  
                                                                                                    
   Atomic configuration                                                                             
   10 entries                                                                                       
     n  l   j            E        occ.                                                              
     1  0  0.50    -10959.8463   2.0000                                                             
     2  0  0.50     -1371.6056   2.0000                                                             
     2  1  1.50     -1198.4791   6.0000                                                             
     3  0  0.50      -168.4733   2.0000                                                             
     3  1  1.50      -115.6019   6.0000                                                             
     3  2  2.50       -29.3106  10.0000                                                             
     4  0  0.50       -11.7309   2.0000                                                             
     4  1  0.50        -3.8952   2.0000                                                             
     4  2  1.50        -4.0817   0.0000                                                             
     4  3  2.50        -4.0817   0.0000                                                             
   Description                                                                                      
     l       E           TYP  RCUT    TYP  RCUT                                                     
     0    -11.7309493     23  2.300                                                                 
     0     -7.4578696     23  2.300                                                                 
     1     -3.8952261     23  2.300                                                                 
     1      6.1178114     23  2.300                                                                 
     2     -4.0817478     23  2.300                                                                 
     3     -1.3605826      7  2.300                                                                 
  local pseudopotential read in
  partial core-charges read in
  partial kinetic energy density read in
  atomic valenz-charges read in
  non local Contribution for L=           0  read in
    real space projection operators read in
  non local Contribution for L=           0  read in
    real space projection operators read in
  non local Contribution for L=           1  read in
    real space projection operators read in
  non local Contribution for L=           1  read in
    real space projection operators read in
  non local Contribution for L=           2  read in
    real space projection operators read in
    PAW grid and wavefunctions read in
 
   number of l-projection  operators is LMAX  =           5
   number of lm-projection operators is LMMAX =          13
 
 POTCAR:    PAW_PBE Fe 06Sep2000                  
   SHA256 =  cd5a22d9368cc8b5cc476bea79732366149640da08ac9009b0e1b7fc627eea28 Fe/POTCAR             
   COPYR  = (c) Copyright 06Sep2000 Georg Kresse                                                    
   COPYR  = This file is part of the software VASP. Any use, copying, and all other rights are regul
   COPYR  = If you do not have a valid VASP license, you may not use, copy or distribute this file. 
   VRHFIN =Fe:  d7 s1                                                                               
   LEXCH  = PE                                                                                      
   EATOM  =   594.3153 eV,   43.6809 Ry                                                             
                                                                                                    
   TITEL  = PAW_PBE Fe 06Sep2000                                                                    
   LULTRA =        F    use ultrasoft PP ?                                                          
   IUNSCR =        1    unscreen: 0-lin 1-nonlin 2-no                                               
   RPACOR =    2.000    partial core radius                                                         
   POMASS =   55.847; ZVAL   =    8.000    mass and valenz                                          
   RCORE  =    2.300    outmost cutoff radius                                                       
   RWIGS  =    2.460; RWIGS  =    1.302    wigner-seitz radius (au A)                               
   ENMAX  =  267.882; ENMIN  =  200.911 eV                                                          
   RCLOC  =    1.701    cutoff for local pot                                                        
   LCOR   =        T    correct aug charges                                                         
   LPAW   =        T    paw PP                                                                      
   EAUG   =  511.368                                                                                
   DEXC   =    0.000                                                                                
   RMAX   =    2.356    core radius for proj-oper                                                   
   RAUG   =    1.300    factor for augmentation sphere                                              
   RDEP   =    2.442    radius for radial grids                                                     
   RDEPT  =    1.890    core radius for aug-charge                                                  
                                                                                                    
   Atomic configuration                                                                             
    9 entries                                                                                       
     n  l   j            E        occ.                                                              
     1  0  0.50     -6993.8440   2.0000                                                             
     2  0  0.50      -814.6047   2.0000                                                             
     2  1  1.50      -693.3689   6.0000                                                             
     3  0  0.50       -89.4732   2.0000                                                             
     3  1  1.50       -55.6373   6.0000                                                             
     3  2  2.50        -3.8151   7.0000                                                             
     4  0  0.50        -4.2551   1.0000                                                             
     4  1  1.50        -3.4015   0.0000                                                             
     4  3  2.50        -1.3606   0.0000                                                             
   Description                                                                                      
     l       E           TYP  RCUT    TYP  RCUT                                                     
     2     -3.8151135     23  2.300                                                                 
     2     -5.1756961     23  2.300                                                                 
     0     -4.2550963     23  2.300                                                                 
     0      7.2035603     23  2.300                                                                 
     1     -2.7211652     23  2.300                                                                 
     1     18.4316424     23  2.300                                                                 
  local pseudopotential read in
  partial core-charges read in
  partial kinetic energy density read in
  atomic valenz-charges read in
  non local Contribution for L=           2  read in
    real space projection operators read in
  non local Contribution for L=           2  read in
    real space projection operators read in
  non local Contribution for L=           0  read in
    real space projection operators read in
  non local Contribution for L=           0  read in
    real space projection operators read in
  non local Contribution for L=           1  read in
    real space projection operators read in
  non local Contribution for L=           1  read in
    real space projection operators read in
    PAW grid and wavefunctions read in
 
   number of l-projection  operators is LMAX  =           6
   number of lm-projection operators is LMMAX =          18
 
 -----------------------------------------------------------------------------
|                                                                             |
|               ----> ADVICE to this user running VASP <----                  |
|                                                                             |
|     You have a (more or less) 'large supercell' and for larger cells it     |
|     might be more efficient to use real-space projection operators.         |
|     Therefore, try LREAL= Auto in the INCAR file.                           |
|     Mind: For very accurate calculation, you might also keep the            |
|     reciprocal projection scheme (i.e. LREAL=.FALSE.).                      |
|                                                                             |
 -----------------------------------------------------------------------------

  PAW_PBE Mn 06Sep2000                  :
 energy of atom  1       EATOM= -416.7541
 kinetic energy error for atom=    0.0033 (will be added to EATOM!!)
  PAW_PBE Ni 02Aug2007                  :
 energy of atom  2       EATOM=-1077.6739
 kinetic energy error for atom=    0.0038 (will be added to EATOM!!)
  PAW_PBE Ge 05Jan2001                  :
 energy of atom  3       EATOM= -104.9960
 kinetic energy error for atom=    0.0003 (will be added to EATOM!!)
  PAW_PBE Fe 06Sep2000                  :
 energy of atom  4       EATOM= -594.3153
 kinetic energy error for atom=    0.0034 (will be added to EATOM!!)
 
 
 POSCAR: MnNiGe_orth
  positions in direct lattice
  velocities in cartesian coordinates
 exchange correlation table for  LEXCH =        8
   RHO(1)=    0.500       N(1)  =     2000
   RHO(2)=  100.500       N(2)  =     4000
 


--------------------------------------------------------------------------------------------------------


 ion  position               nearest neighbor table
   1  0.242  0.250  0.178-  41 2.53  45 2.53  32 2.59  44 2.78  40 2.78  16 2.81  18 2.81  29 2.88
                            25 2.88  24 2.95  28 2.95
   2  0.242  0.750  0.178-  41 2.53  45 2.53  33 2.59  44 2.78  40 2.78  17 2.81  19 2.81  29 2.88
                            25 2.88  24 2.95  28 2.95
   3  0.492  0.250  0.322-  42 2.53  46 2.53  34 2.59  45 2.78  41 2.78  18 2.81  20 2.81  30 2.88
                            26 2.88  25 2.95  29 2.95
   4  0.492  0.750  0.322-  42 2.53  46 2.53  35 2.59  45 2.78  41 2.78  19 2.81  21 2.81  30 2.88
                            26 2.88  25 2.95  29 2.95
   5  0.742  0.250  0.178-  43 2.53  47 2.53  36 2.59  46 2.78  42 2.78  20 2.81  22 2.81  31 2.88
                            27 2.88  26 2.95  30 2.95
   6  0.742  0.750  0.178-  43 2.53  47 2.53  37 2.59  46 2.78  42 2.78  21 2.81  23 2.81  31 2.88
                            27 2.88  26 2.95  30 2.95
   7  0.992  0.250  0.322-  40 2.53  44 2.53  38 2.59  43 2.78  47 2.78  22 2.81  16 2.81  28 2.88
                            24 2.88  31 2.95  27 2.95
   8  0.992  0.750  0.322-  40 2.53  44 2.53  39 2.59  43 2.78  47 2.78  23 2.81  17 2.81  28 2.88
                            24 2.88  31 2.95  27 2.95
   9  0.008  0.000  0.678-  38 2.53  39 2.53  40 2.59  33 2.78  32 2.78  24 2.81  27 2.81  23 2.88
                            22 2.88  17 2.95  16 2.95
  10  0.258  0.000  0.822-  32 2.53  33 2.53  41 2.59  35 2.78  34 2.78  25 2.81  24 2.81  17 2.88
                            16 2.88  19 2.95  18 2.95
  11  0.508  0.000  0.678-  34 2.53  35 2.53  42 2.59  37 2.78  36 2.78  26 2.81  25 2.81  19 2.88
                            18 2.88  21 2.95  20 2.95
  12  0.758  0.000  0.822-  36 2.53  37 2.53  43 2.59  39 2.78  38 2.78  27 2.81  26 2.81  21 2.88
                            20 2.88  23 2.95  22 2.95
  13  0.008  0.500  0.678-  38 2.53  39 2.53  44 2.59  33 2.78  32 2.78  28 2.81  31 2.81  23 2.88
                            22 2.88  17 2.95  16 2.95
  14  0.258  0.500  0.822-  32 2.53  33 2.53  45 2.59  35 2.78  34 2.78  29 2.81  28 2.81  17 2.88
                            16 2.88  19 2.95  18 2.95
  15  0.758  0.500  0.822-  36 2.53  37 2.53  47 2.59  39 2.78  38 2.78  31 2.81  30 2.81  21 2.88
                            20 2.88  23 2.95  22 2.95
  16  0.177  0.250  0.553-  40 2.36  44 2.36  32 2.42  34 2.49  25 2.72  29 2.72   1 2.81   7 2.81
                            10 2.88  14 2.88  13 2.95   9 2.95
  17  0.177  0.750  0.553-  40 2.36  44 2.36  33 2.42  35 2.49  25 2.72  29 2.72   2 2.81   8 2.81
                            10 2.88  14 2.88  13 2.95   9 2.95
  18  0.427  0.250  0.947-  41 2.36  45 2.36  34 2.42  36 2.49  26 2.72  30 2.72   3 2.81   1 2.81
                            11 2.88  48 2.88  14 2.95  10 2.95
  19  0.427  0.750  0.947-  41 2.36  45 2.36  35 2.42  37 2.49  26 2.72  30 2.72   4 2.81   2 2.81
                            11 2.88  48 2.88  14 2.95  10 2.95
  20  0.677  0.250  0.553-  42 2.36  46 2.36  36 2.42  38 2.49  27 2.72  31 2.72   5 2.81   3 2.81
                            12 2.88  15 2.88  11 2.95  48 2.95
  21  0.677  0.750  0.553-  42 2.36  46 2.36  37 2.42  39 2.49  27 2.72  31 2.72   6 2.81   4 2.81
                            12 2.88  15 2.88  11 2.95  48 2.95
  22  0.927  0.250  0.947-  43 2.36  47 2.36  38 2.42  32 2.49  24 2.72  28 2.72   7 2.81   5 2.81
                             9 2.88  13 2.88  12 2.95  15 2.95
  23  0.927  0.750  0.947-  43 2.36  47 2.36  39 2.42  33 2.49  24 2.72  28 2.72   8 2.81   6 2.81
                             9 2.88  13 2.88  12 2.95  15 2.95
  24  0.073  0.000  0.053-  32 2.36  33 2.36  40 2.42  43 2.49  22 2.72  23 2.72   9 2.81  10 2.81
                             7 2.88   8 2.88   1 2.95   2 2.95
  25  0.323  0.000  0.447-  34 2.36  35 2.36  41 2.42  40 2.49  16 2.72  17 2.72  10 2.81  11 2.81
                             1 2.88   2 2.88   3 2.95   4 2.95
  26  0.573  0.000  0.053-  36 2.36  37 2.36  42 2.42  41 2.49  18 2.72  19 2.72  11 2.81  12 2.81
                             3 2.88   4 2.88   5 2.95   6 2.95
  27  0.823  0.000  0.447-  38 2.36  39 2.36  43 2.42  42 2.49  20 2.72  21 2.72  12 2.81   9 2.81
                             5 2.88   6 2.88   7 2.95   8 2.95
  28  0.073  0.500  0.053-  32 2.36  33 2.36  44 2.42  47 2.49  22 2.72  23 2.72  13 2.81  14 2.81
                             7 2.88   8 2.88   1 2.95   2 2.95
  29  0.323  0.500  0.447-  34 2.36  35 2.36  45 2.42  44 2.49  16 2.72  17 2.72  14 2.81  48 2.81
                             1 2.88   2 2.88   3 2.95   4 2.95
  30  0.573  0.500  0.053-  36 2.36  37 2.36  46 2.42  45 2.49  18 2.72  19 2.72  48 2.81  15 2.81
                             3 2.88   4 2.88   5 2.95   6 2.95
  31  0.823  0.500  0.447-  38 2.36  39 2.36  47 2.42  46 2.49  20 2.72  21 2.72  15 2.81  13 2.81
                             5 2.88   6 2.88   7 2.95   8 2.95
  32  0.125  0.250  0.878-  24 2.36  28 2.36  16 2.42  22 2.49  10 2.53  14 2.53   1 2.59  13 2.78
                             9 2.78
  33  0.125  0.750  0.878-  24 2.36  28 2.36  17 2.42  23 2.49  10 2.53  14 2.53   2 2.59  13 2.78
                             9 2.78
  34  0.375  0.250  0.622-  25 2.36  29 2.36  18 2.42  16 2.49  11 2.53  48 2.53   3 2.59  14 2.78
                            10 2.78
  35  0.375  0.750  0.622-  25 2.36  29 2.36  19 2.42  17 2.49  11 2.53  48 2.53   4 2.59  14 2.78
                            10 2.78
  36  0.625  0.250  0.878-  26 2.36  30 2.36  20 2.42  18 2.49  12 2.53  15 2.53   5 2.59  11 2.78
                            48 2.78
  37  0.625  0.750  0.878-  26 2.36  30 2.36  21 2.42  19 2.49  12 2.53  15 2.53   6 2.59  11 2.78
                            48 2.78
  38  0.875  0.250  0.622-  27 2.36  31 2.36  22 2.42  20 2.49   9 2.53  13 2.53   7 2.59  12 2.78
                            15 2.78
  39  0.875  0.750  0.622-  27 2.36  31 2.36  23 2.42  21 2.49   9 2.53  13 2.53   8 2.59  12 2.78
                            15 2.78
  40  0.125  0.000  0.378-  16 2.36  17 2.36  24 2.42  25 2.49   7 2.53   8 2.53   9 2.59   2 2.78
                             1 2.78
  41  0.375  0.000  0.122-  18 2.36  19 2.36  25 2.42  26 2.49   1 2.53   2 2.53  10 2.59   4 2.78
                             3 2.78
  42  0.625  0.000  0.378-  20 2.36  21 2.36  26 2.42  27 2.49   3 2.53   4 2.53  11 2.59   6 2.78
                             5 2.78
  43  0.875  0.000  0.122-  22 2.36  23 2.36  27 2.42  24 2.49   5 2.53   6 2.53  12 2.59   8 2.78
                             7 2.78
  44  0.125  0.500  0.378-  16 2.36  17 2.36  28 2.42  29 2.49   7 2.53   8 2.53  13 2.59   2 2.78
                             1 2.78
  45  0.375  0.500  0.122-  18 2.36  19 2.36  29 2.42  30 2.49   1 2.53   2 2.53  14 2.59   4 2.78
                             3 2.78
  46  0.625  0.500  0.378-  20 2.36  21 2.36  30 2.42  31 2.49   3 2.53   4 2.53  48 2.59   6 2.78
                             5 2.78
  47  0.875  0.500  0.122-  22 2.36  23 2.36  31 2.42  28 2.49   5 2.53   6 2.53  15 2.59   8 2.78
                             7 2.78
  48  0.508  0.500  0.678-  34 2.53  35 2.53  46 2.59  37 2.78  36 2.78  30 2.81  29 2.81  19 2.88
                            18 2.88  21 2.95  20 2.95
 
  LATTYP: Found a simple orthorhombic cell.
 ALAT       =     7.1855346953
 B/A-ratio  =     1.0555008508
 C/A-ratio  =     1.7085169161
  
  Lattice vectors:
  
 A1 = (   0.0000000000,   0.0000000000,  -7.1855346953)
 A2 = (   0.0000000000,  -7.5843379843,   0.0000000000)
 A3 = ( -12.2766075778,   0.0000000000,   0.0000000000)


Analysis of symmetry for initial positions (statically):
=====================================================================
 Subroutine PRICEL returns:
 Original cell was already a primitive cell.
 

 Routine SETGRP: Setting up the symmetry group for a 
 simple orthorhombic supercell.


 Subroutine GETGRP returns: Found  2 space group operations
 (whereof  2 operations were pure point group operations)
 out of a pool of  8 trial point group operations.


The static configuration has the point symmetry C_1h.


Analysis of symmetry for dynamics (positions and initial velocities):
=====================================================================
 Subroutine PRICEL returns:
 Original cell was already a primitive cell.
 

 Routine SETGRP: Setting up the symmetry group for a 
 simple orthorhombic supercell.


 Subroutine GETGRP returns: Found  2 space group operations
 (whereof  2 operations were pure point group operations)
 out of a pool of  8 trial point group operations.


The dynamic configuration has the point symmetry C_1h.


Analysis of structural, dynamic, and magnetic symmetry:
=====================================================================
 Subroutine PRICEL returns:
 Original cell was already a primitive cell.
 

 Routine SETGRP: Setting up the symmetry group for a 
 simple orthorhombic supercell.


 Subroutine GETGRP returns: Found  2 space group operations
 (whereof  2 operations were pure point group operations)
 out of a pool of  8 trial point group operations.


The magnetic configuration has the point symmetry C_1h.


 Subroutine INISYM returns: Found  2 space group operations
 (whereof  2 operations are pure point group operations),
 and found     1 'primitive' translations


----------------------------------------------------------------------------------------

                                     Primitive cell                                     

  volume of cell :     669.0447

  direct lattice vectors                    reciprocal lattice vectors
    12.276607578  0.000000000  0.000000000     0.081455727  0.000000000  0.000000000
     0.000000000  7.584337984  0.000000000     0.000000000  0.131850664  0.000000000
     0.000000000  0.000000000  7.185534695     0.000000000  0.000000000  0.139168488

  length of vectors
    12.276607578  7.584337984  7.185534695     0.081455727  0.131850664  0.139168488

  position of ions in fractional coordinates (direct lattice)
     0.241899997  0.250000000  0.178299993
     0.241899997  0.750000000  0.178299993
     0.491899997  0.250000000  0.321700007
     0.491899997  0.750000000  0.321700007
     0.741900027  0.250000000  0.178299993
     0.741900027  0.750000000  0.178299993
     0.991900027  0.250000000  0.321700007
     0.991900027  0.750000000  0.321700007
     0.008100000  0.000000000  0.678300023
     0.258100003  0.000000000  0.821699977
     0.508099973  0.000000000  0.678300023
     0.758099973  0.000000000  0.821699977
     0.008100000  0.500000000  0.678300023
     0.258100003  0.500000000  0.821699977
     0.758099973  0.500000000  0.821699977
     0.176699996  0.250000000  0.553300023
     0.176699996  0.750000000  0.553300023
     0.426699996  0.250000000  0.946699977
     0.426699996  0.750000000  0.946699977
     0.676699996  0.250000000  0.553300023
     0.676699996  0.750000000  0.553300023
     0.926699996  0.250000000  0.946699977
     0.926699996  0.750000000  0.946699977
     0.073299997  0.000000000  0.053300001
     0.323300004  0.000000000  0.446700007
     0.573300004  0.000000000  0.053300001
     0.823300004  0.000000000  0.446700007
     0.073299997  0.500000000  0.053300001
     0.323300004  0.500000000  0.446700007
     0.573300004  0.500000000  0.053300001
     0.823300004  0.500000000  0.446700007
     0.125249997  0.250000000  0.878300011
     0.125249997  0.750000000  0.878300011
     0.375250012  0.250000000  0.621699989
     0.375250012  0.750000000  0.621699989
     0.625249982  0.250000000  0.878300011
     0.625249982  0.750000000  0.878300011
     0.875249982  0.250000000  0.621699989
     0.875249982  0.750000000  0.621699989
     0.124750003  0.000000000  0.378300011
     0.374749988  0.000000000  0.121699996
     0.624750018  0.000000000  0.378300011
     0.874750018  0.000000000  0.121699996
     0.124750003  0.500000000  0.378300011
     0.374749988  0.500000000  0.121699996
     0.624750018  0.500000000  0.378300011
     0.874750018  0.500000000  0.121699996
     0.508099973  0.500000000  0.678300023

  ion indices of the primitive-cell ions
   primitive index   ion index
                 1           1
                 2           2
                 3           3
                 4           4
                 5           5
                 6           6
                 7           7
                 8           8
                 9           9
                10          10
                11          11
                12          12
                13          13
                14          14
                15          15
                16          16
                17          17
                18          18
                19          19
                20          20
                21          21
                22          22
                23          23
                24          24
                25          25
                26          26
                27          27
                28          28
                29          29
                30          30
                31          31
                32          32
                33          33
                34          34
                35          35
                36          36
                37          37
                38          38
                39          39
                40          40
                41          41
                42          42
                43          43
                44          44
                45          45
                46          46
                47          47
                48          48

----------------------------------------------------------------------------------------

 
 
 KPOINTS: Auto                                    

Automatic generation of k-mesh.
Space group operators:
 irot       det(A)        alpha          n_x          n_y          n_z        tau_x        tau_y        tau_z
    1     1.000000     0.000001     1.000000     0.000000     0.000000     0.000000     0.000000     0.000000
    2    -1.000000   179.999999     0.000000     1.000000     0.000000     0.000000     0.000000     0.000000
 
 Subroutine IBZKPT returns following result:
 ===========================================
 
 Found     60 irreducible k-points:
 
 Following reciprocal coordinates:
            Coordinates               Weight
  0.000000  0.000000  0.000000      1.000000
  0.250000  0.000000  0.000000      2.000000
  0.500000  0.000000  0.000000      1.000000
  0.000000  0.142857  0.000000      2.000000
  0.250000  0.142857  0.000000      4.000000
  0.500000  0.142857  0.000000      2.000000
  0.000000  0.285714  0.000000      2.000000
  0.250000  0.285714  0.000000      4.000000
  0.500000  0.285714  0.000000      2.000000
  0.000000  0.428571  0.000000      2.000000
  0.250000  0.428571  0.000000      4.000000
  0.500000  0.428571  0.000000      2.000000
  0.000000  0.000000  0.142857      2.000000
  0.250000  0.000000  0.142857      2.000000
 -0.250000  0.000000  0.142857      2.000000
  0.500000  0.000000  0.142857      2.000000
  0.000000  0.142857  0.142857      4.000000
  0.250000  0.142857  0.142857      4.000000
 -0.250000 -0.142857  0.142857      4.000000
  0.500000  0.142857  0.142857      4.000000
  0.000000  0.285714  0.142857      4.000000
  0.250000  0.285714  0.142857      4.000000
 -0.250000 -0.285714  0.142857      4.000000
  0.500000  0.285714  0.142857      4.000000
  0.000000  0.428571  0.142857      4.000000
  0.250000  0.428571  0.142857      4.000000
 -0.250000 -0.428571  0.142857      4.000000
  0.500000  0.428571  0.142857      4.000000
  0.000000  0.000000  0.285714      2.000000
  0.250000  0.000000  0.285714      2.000000
 -0.250000  0.000000  0.285714      2.000000
  0.500000  0.000000  0.285714      2.000000
  0.000000  0.142857  0.285714      4.000000
  0.250000  0.142857  0.285714      4.000000
 -0.250000 -0.142857  0.285714      4.000000
  0.500000  0.142857  0.285714      4.000000
  0.000000  0.285714  0.285714      4.000000
  0.250000  0.285714  0.285714      4.000000
 -0.250000 -0.285714  0.285714      4.000000
  0.500000  0.285714  0.285714      4.000000
  0.000000  0.428571  0.285714      4.000000
  0.250000  0.428571  0.285714      4.000000
 -0.250000 -0.428571  0.285714      4.000000
  0.500000  0.428571  0.285714      4.000000
  0.000000  0.000000  0.428571      2.000000
  0.250000  0.000000  0.428571      2.000000
 -0.250000  0.000000  0.428571      2.000000
  0.500000  0.000000  0.428571      2.000000
  0.000000  0.142857  0.428571      4.000000
  0.250000  0.142857  0.428571      4.000000
 -0.250000 -0.142857  0.428571      4.000000
  0.500000  0.142857  0.428571      4.000000
  0.000000  0.285714  0.428571      4.000000
  0.250000  0.285714  0.428571      4.000000
 -0.250000 -0.285714  0.428571      4.000000
  0.500000  0.285714  0.428571      4.000000
  0.000000  0.428571  0.428571      4.000000
  0.250000  0.428571  0.428571      4.000000
 -0.250000 -0.428571  0.428571      4.000000
  0.500000  0.428571  0.428571      4.000000
 
 Following cartesian coordinates:
            Coordinates               Weight
  0.000000  0.000000  0.000000      1.000000
  0.020771  0.000000  0.000000      2.000000
  0.041542  0.000000  0.000000      1.000000
  0.000000  0.019213  0.000000      2.000000
  0.020771  0.019213  0.000000      4.000000
  0.041542  0.019213  0.000000      2.000000
  0.000000  0.038425  0.000000      2.000000
  0.020771  0.038425  0.000000      4.000000
  0.041542  0.038425  0.000000      2.000000
  0.000000  0.057638  0.000000      2.000000
  0.020771  0.057638  0.000000      4.000000
  0.041542  0.057638  0.000000      2.000000
  0.000000  0.000000  0.020279      2.000000
  0.020771  0.000000  0.020279      2.000000
 -0.020771  0.000000  0.020279      2.000000
  0.041542  0.000000  0.020279      2.000000
  0.000000  0.019213  0.020279      4.000000
  0.020771  0.019213  0.020279      4.000000
 -0.020771 -0.019213  0.020279      4.000000
  0.041542  0.019213  0.020279      4.000000
  0.000000  0.038425  0.020279      4.000000
  0.020771  0.038425  0.020279      4.000000
 -0.020771 -0.038425  0.020279      4.000000
  0.041542  0.038425  0.020279      4.000000
  0.000000  0.057638  0.020279      4.000000
  0.020771  0.057638  0.020279      4.000000
 -0.020771 -0.057638  0.020279      4.000000
  0.041542  0.057638  0.020279      4.000000
  0.000000  0.000000  0.040558      2.000000
  0.020771  0.000000  0.040558      2.000000
 -0.020771  0.000000  0.040558      2.000000
  0.041542  0.000000  0.040558      2.000000
  0.000000  0.019213  0.040558      4.000000
  0.020771  0.019213  0.040558      4.000000
 -0.020771 -0.019213  0.040558      4.000000
  0.041542  0.019213  0.040558      4.000000
  0.000000  0.038425  0.040558      4.000000
  0.020771  0.038425  0.040558      4.000000
 -0.020771 -0.038425  0.040558      4.000000
  0.041542  0.038425  0.040558      4.000000
  0.000000  0.057638  0.040558      4.000000
  0.020771  0.057638  0.040558      4.000000
 -0.020771 -0.057638  0.040558      4.000000
  0.041542  0.057638  0.040558      4.000000
  0.000000  0.000000  0.060837      2.000000
  0.020771  0.000000  0.060837      2.000000
 -0.020771  0.000000  0.060837      2.000000
  0.041542  0.000000  0.060837      2.000000
  0.000000  0.019213  0.060837      4.000000
  0.020771  0.019213  0.060837      4.000000
 -0.020771 -0.019213  0.060837      4.000000
  0.041542  0.019213  0.060837      4.000000
  0.000000  0.038425  0.060837      4.000000
  0.020771  0.038425  0.060837      4.000000
 -0.020771 -0.038425  0.060837      4.000000
  0.041542  0.038425  0.060837      4.000000
  0.000000  0.057638  0.060837      4.000000
  0.020771  0.057638  0.060837      4.000000
 -0.020771 -0.057638  0.060837      4.000000
  0.041542  0.057638  0.060837      4.000000
 


--------------------------------------------------------------------------------------------------------




 Dimension of arrays:
   k-points           NKPTS =     60   k-points in BZ     NKDIM =     60   number of bands    NBANDS=    360
   number of dos      NEDOS =    301   number of ions     NIONS =     48
   non local maximal  LDIM  =      6   non local SUM 2l+1 LMDIM =     18
   total plane-waves  NPLWV = 243000
   max r-space proj   IRMAX =      1   max aug-charges    IRDMAX=  19937
   dimension x,y,z NGX =    90 NGY =   54 NGZ =   50
   dimension x,y,z NGXF=   180 NGYF=  108 NGZF=  100
   support grid    NGXF=   180 NGYF=  108 NGZF=  100
   ions per type =              15  16  16   1
   NGX,Y,Z   is equivalent  to a cutoff of  12.19, 11.84, 11.57 a.u.
   NGXF,Y,Z  is equivalent  to a cutoff of  24.38, 23.67, 23.14 a.u.

 SYSTEM =  MnFeNiGe_mag_orth-scf                   
 POSCAR =  MnNiGe_orth                             

 Startparameter for this run:
   NWRITE =      2    write-flag & timer
   PREC   = accura    normal or accurate (medium, high low for compatibility)
   ISTART =      0    job   : 0-new  1-cont  2-samecut
   ICHARG =      2    charge: 1-file 2-atom 10-const
   ISPIN  =      2    spin polarized calculation?
   LNONCOLLINEAR =      F non collinear calculations
   LSORBIT =      F    spin-orbit coupling
   INIWAV =      1    electr: 0-lowe 1-rand  2-diag
   LASPH  =      F    aspherical Exc in radial PAW
   METAGGA=      F    non-selfconsistent MetaGGA calc.

 Electronic Relaxation 1
   ENCUT  =  450.0 eV  33.07 Ry    5.75 a.u.  21.23 13.12 12.43*2*pi/ulx,y,z
   ENINI  =  450.0     initial cutoff
   ENAUG  =  544.6 eV  augmentation charge cutoff
   NELM   =     60;   NELMIN=  5; NELMDL= -5     # of ELM steps 
   EDIFF  = 0.1E-05   stopping-criterion for ELM
   LREAL  =      F    real-space projection
   NLSPLINE    = F    spline interpolate recip. space projectors
   LCOMPAT=      F    compatible to vasp.4.4
   GGA_COMPAT  = T    GGA compatible to vasp.4.4-vasp.4.6
   LMAXPAW     = -100 max onsite density
   LMAXMIX     =    2 max onsite mixed and CHGCAR
   VOSKOWN=      0    Vosko Wilk Nusair interpolation
   ROPT   =    0.00000   0.00000   0.00000   0.00000
 Ionic relaxation
   EDIFFG = 0.1E-04   stopping-criterion for IOM
   NSW    =      0    number of steps for IOM
   NBLOCK =      1;   KBLOCK =      1    inner block; outer block 
   IBRION =     -1    ionic relax: 0-MD 1-quasi-New 2-CG
   NFREE  =      0    steps in history (QN), initial steepest desc. (CG)
   ISIF   =      6    stress and relaxation
   IWAVPR =     10    prediction:  0-non 1-charg 2-wave 3-comb
   ISYM   =      2    0-nonsym 1-usesym 2-fastsym
   LCORR  =      T    Harris-Foulkes like correction to forces

   POTIM  = 0.5000    time-step for ionic-motion
   TEIN   =    0.0    initial temperature
   TEBEG  =    0.0;   TEEND  =   0.0 temperature during run
   SMASS  =  -3.00    Nose mass-parameter (am)
   estimated Nose-frequenzy (Omega)   =  0.10E-29 period in steps = 0.13E+47 mass=  -0.344E-26a.u.
   SCALEE = 1.0000    scale energy and forces
   NPACO  =    256;   APACO  = 16.0  distance and # of slots for P.C.
   PSTRESS=    0.0 pullay stress

  Mass of Ions in am
   POMASS =  54.94 58.69 72.61 55.85
  Ionic Valenz
   ZVAL   =   7.00 10.00  4.00  8.00
  Atomic Wigner-Seitz radii
   RWIGS  =  -1.00 -1.00 -1.00 -1.00
  virtual crystal weights 
   VCA    =   1.00  1.00  1.00  1.00
   NELECT =     337.0000    total number of electrons
   NUPDOWN=      -1.0000    fix difference up-down

 DOS related values:
   EMIN   =  10.00;   EMAX   =-10.00  energy-range for DOS
   EFERMI =   0.00
   ISMEAR =     1;   SIGMA  =   0.20  broadening in eV -4-tet -1-fermi 0-gaus

 Electronic relaxation 2 (details)
   IALGO  =     38    algorithm
   LDIAG  =      T    sub-space diagonalisation (order eigenvalues)
   LSUBROT=      F    optimize rotation matrix (better conditioning)
   TURBO    =      0    0=normal 1=particle mesh
   IRESTART =      0    0=no restart 2=restart with 2 vectors
   NREBOOT  =      0    no. of reboots
   NMIN     =      0    reboot dimension
   EREF     =   0.00    reference energy to select bands
   IMIX   =      4    mixing-type and parameters
     AMIX     =   0.40;   BMIX     =  1.00
     AMIX_MAG =   1.60;   BMIX_MAG =  1.00
     AMIN     =   0.10
     WC   =   100.;   INIMIX=   1;  MIXPRE=   1;  MAXMIX= -45

 Intra band minimization:
   WEIMIN = 0.0000     energy-eigenvalue tresh-hold
   EBREAK =  0.69E-09  absolut break condition
   DEPER  =   0.30     relativ break condition  

   TIME   =   0.40     timestep for ELM

  volume/ion in A,a.u.               =      13.94        94.06
  Fermi-wavevector in a.u.,A,eV,Ry     =   1.302566  2.461493 23.084709  1.696678
  Thomas-Fermi vector in A             =   2.433626
 
 Write flags
   LWAVE        =      F    write WAVECAR
   LDOWNSAMPLE  =      F    k-point downsampling of WAVECAR
   LCHARG       =      T    write CHGCAR
   LVTOT        =      F    write LOCPOT, total local potential
   LVHAR        =      F    write LOCPOT, Hartree potential only
   LELF         =      F    write electronic localiz. function (ELF)
   LORBIT       =     11    0 simple, 1 ext, 2 COOP (PROOUT), +10 PAW based schemes


 Dipole corrections
   LMONO  =      F    monopole corrections only (constant potential shift)
   LDIPOL =      F    correct potential (dipole corrections)
   IDIPOL =      0    1-x, 2-y, 3-z, 4-all directions 
   EPSILON=  1.0000000 bulk dielectric constant

 Exchange correlation treatment:
   GGA     =    --    GGA type
   LEXCH   =     8    internal setting for exchange type
   VOSKOWN=      0    Vosko Wilk Nusair interpolation
   LHFCALC =     F    Hartree Fock is set to
   LHFONE  =     F    Hartree Fock one center treatment
   AEXX    =    0.0000 exact exchange contribution

 Linear response parameters
   LEPSILON=     F    determine dielectric tensor
   LRPA    =     F    only Hartree local field effects (RPA)
   LNABLA  =     F    use nabla operator in PAW spheres
   LVEL    =     F    velocity operator in full k-point grid
   LINTERFAST=   F  fast interpolation
   KINTER  =     0    interpolate to denser k-point grid
   CSHIFT  =0.1000    complex shift for real part using Kramers Kronig
   OMEGAMAX=  -1.0    maximum frequency
   DEG_THRESHOLD= 0.2000000E-02 threshold for treating states as degnerate
   RTIME   =   -0.100 relaxation time in fs
  (WPLASMAI=    0.000 imaginary part of plasma frequency in eV, 0.658/RTIME)
   DFIELD  = 0.0000000 0.0000000 0.0000000 field for delta impulse in time
 
 Orbital magnetization related:
   ORBITALMAG=     F  switch on orbital magnetization
   LCHIMAG   =     F  perturbation theory with respect to B field
   DQ        =  0.001000  dq finite difference perturbation B field
   LLRAUG    =     F  two centre corrections for induced B field



--------------------------------------------------------------------------------------------------------


 Static calculation
 charge density and potential will be updated during run
 spin polarized calculation
 Variant of blocked Davidson
 Davidson routine will perform the subspace rotation
 perform sub-space diagonalisation
    after iterative eigenvector-optimisation
 modified Broyden-mixing scheme, WC =      100.0
 initial mixing is a Kerker type mixing with AMIX =  0.4000 and BMIX =      1.0000
 Hartree-type preconditioning will be used
 using additional bands          191
 reciprocal scheme for non local part
 use partial core corrections
 calculate Harris-corrections to forces 
   (improved forces if not selfconsistent)
 use gradient corrections 
 use of overlap-Matrix (Vanderbilt PP)
 Methfessel and Paxton  Order N= 1 SIGMA  =   0.20


--------------------------------------------------------------------------------------------------------


  energy-cutoff  :      450.00
  volume of cell :      669.04
      direct lattice vectors                 reciprocal lattice vectors
    12.276607578  0.000000000  0.000000000     0.081455727  0.000000000  0.000000000
     0.000000000  7.584337984  0.000000000     0.000000000  0.131850664  0.000000000
     0.000000000  0.000000000  7.185534695     0.000000000  0.000000000  0.139168488

  length of vectors
    12.276607578  7.584337984  7.185534695     0.081455727  0.131850664  0.139168488


 
 k-points in units of 2pi/SCALE and weight: Auto                                    
   0.00000000  0.00000000  0.00000000       0.005
   0.02077121  0.00000000  0.00000000       0.010
   0.04154242  0.00000000  0.00000000       0.005
   0.00000000  0.01921253  0.00000000       0.010
   0.02077121  0.01921253  0.00000000       0.020
   0.04154242  0.01921253  0.00000000       0.010
   0.00000000  0.03842505  0.00000000       0.010
   0.02077121  0.03842505  0.00000000       0.020
   0.04154242  0.03842505  0.00000000       0.010
   0.00000000  0.05763758  0.00000000       0.010
   0.02077121  0.05763758  0.00000000       0.020
   0.04154242  0.05763758  0.00000000       0.010
   0.00000000  0.00000000  0.02027884       0.010
   0.02077121  0.00000000  0.02027884       0.010
  -0.02077121  0.00000000  0.02027884       0.010
   0.04154242  0.00000000  0.02027884       0.010
   0.00000000  0.01921253  0.02027884       0.020
   0.02077121  0.01921253  0.02027884       0.020
  -0.02077121 -0.01921253  0.02027884       0.020
   0.04154242  0.01921253  0.02027884       0.020
   0.00000000  0.03842505  0.02027884       0.020
   0.02077121  0.03842505  0.02027884       0.020
  -0.02077121 -0.03842505  0.02027884       0.020
   0.04154242  0.03842505  0.02027884       0.020
   0.00000000  0.05763758  0.02027884       0.020
   0.02077121  0.05763758  0.02027884       0.020
  -0.02077121 -0.05763758  0.02027884       0.020
   0.04154242  0.05763758  0.02027884       0.020
   0.00000000  0.00000000  0.04055767       0.010
   0.02077121  0.00000000  0.04055767       0.010
  -0.02077121  0.00000000  0.04055767       0.010
   0.04154242  0.00000000  0.04055767       0.010
   0.00000000  0.01921253  0.04055767       0.020
   0.02077121  0.01921253  0.04055767       0.020
  -0.02077121 -0.01921253  0.04055767       0.020
   0.04154242  0.01921253  0.04055767       0.020
   0.00000000  0.03842505  0.04055767       0.020
   0.02077121  0.03842505  0.04055767       0.020
  -0.02077121 -0.03842505  0.04055767       0.020
   0.04154242  0.03842505  0.04055767       0.020
   0.00000000  0.05763758  0.04055767       0.020
   0.02077121  0.05763758  0.04055767       0.020
  -0.02077121 -0.05763758  0.04055767       0.020
   0.04154242  0.05763758  0.04055767       0.020
   0.00000000  0.00000000  0.06083651       0.010
   0.02077121  0.00000000  0.06083651       0.010
  -0.02077121  0.00000000  0.06083651       0.010
   0.04154242  0.00000000  0.06083651       0.010
   0.00000000  0.01921253  0.06083651       0.020
   0.02077121  0.01921253  0.06083651       0.020
  -0.02077121 -0.01921253  0.06083651       0.020
   0.04154242  0.01921253  0.06083651       0.020
   0.00000000  0.03842505  0.06083651       0.020
   0.02077121  0.03842505  0.06083651       0.020
  -0.02077121 -0.03842505  0.06083651       0.020
   0.04154242  0.03842505  0.06083651       0.020
   0.00000000  0.05763758  0.06083651       0.020
   0.02077121  0.05763758  0.06083651       0.020
  -0.02077121 -0.05763758  0.06083651       0.020
   0.04154242  0.05763758  0.06083651       0.020
 
 k-points in reciprocal lattice and weights: Auto                                    
   0.00000000  0.00000000  0.00000000       0.005
   0.25000000  0.00000000  0.00000000       0.010
   0.50000000  0.00000000  0.00000000       0.005
   0.00000000  0.14285714  0.00000000       0.010
   0.25000000  0.14285714  0.00000000       0.020
   0.50000000  0.14285714  0.00000000       0.010
   0.00000000  0.28571429  0.00000000       0.010
   0.25000000  0.28571429  0.00000000       0.020
   0.50000000  0.28571429  0.00000000       0.010
   0.00000000  0.42857143  0.00000000       0.010
   0.25000000  0.42857143  0.00000000       0.020
   0.50000000  0.42857143  0.00000000       0.010
   0.00000000  0.00000000  0.14285714       0.010
   0.25000000  0.00000000  0.14285714       0.010
  -0.25000000  0.00000000  0.14285714       0.010
   0.50000000  0.00000000  0.14285714       0.010
   0.00000000  0.14285714  0.14285714       0.020
   0.25000000  0.14285714  0.14285714       0.020
  -0.25000000 -0.14285714  0.14285714       0.020
   0.50000000  0.14285714  0.14285714       0.020
   0.00000000  0.28571429  0.14285714       0.020
   0.25000000  0.28571429  0.14285714       0.020
  -0.25000000 -0.28571429  0.14285714       0.020
   0.50000000  0.28571429  0.14285714       0.020
   0.00000000  0.42857143  0.14285714       0.020
   0.25000000  0.42857143  0.14285714       0.020
  -0.25000000 -0.42857143  0.14285714       0.020
   0.50000000  0.42857143  0.14285714       0.020
   0.00000000  0.00000000  0.28571429       0.010
   0.25000000  0.00000000  0.28571429       0.010
  -0.25000000  0.00000000  0.28571429       0.010
   0.50000000  0.00000000  0.28571429       0.010
   0.00000000  0.14285714  0.28571429       0.020
   0.25000000  0.14285714  0.28571429       0.020
  -0.25000000 -0.14285714  0.28571429       0.020
   0.50000000  0.14285714  0.28571429       0.020
   0.00000000  0.28571429  0.28571429       0.020
   0.25000000  0.28571429  0.28571429       0.020
  -0.25000000 -0.28571429  0.28571429       0.020
   0.50000000  0.28571429  0.28571429       0.020
   0.00000000  0.42857143  0.28571429       0.020
   0.25000000  0.42857143  0.28571429       0.020
  -0.25000000 -0.42857143  0.28571429       0.020
   0.50000000  0.42857143  0.28571429       0.020
   0.00000000  0.00000000  0.42857143       0.010
   0.25000000  0.00000000  0.42857143       0.010
  -0.25000000  0.00000000  0.42857143       0.010
   0.50000000  0.00000000  0.42857143       0.010
   0.00000000  0.14285714  0.42857143       0.020
   0.25000000  0.14285714  0.42857143       0.020
  -0.25000000 -0.14285714  0.42857143       0.020
   0.50000000  0.14285714  0.42857143       0.020
   0.00000000  0.28571429  0.42857143       0.020
   0.25000000  0.28571429  0.42857143       0.020
  -0.25000000 -0.28571429  0.42857143       0.020
   0.50000000  0.28571429  0.42857143       0.020
   0.00000000  0.42857143  0.42857143       0.020
   0.25000000  0.42857143  0.42857143       0.020
  -0.25000000 -0.42857143  0.42857143       0.020
   0.50000000  0.42857143  0.42857143       0.020
 
 position of ions in fractional coordinates (direct lattice) 
   0.24190000  0.25000000  0.17829999
   0.24190000  0.75000000  0.17829999
   0.49190000  0.25000000  0.32170001
   0.49190000  0.75000000  0.32170001
   0.74190003  0.25000000  0.17829999
   0.74190003  0.75000000  0.17829999
   0.99190003  0.25000000  0.32170001
   0.99190003  0.75000000  0.32170001
   0.00810000  0.00000000  0.67830002
   0.25810000  0.00000000  0.82169998
   0.50809997  0.00000000  0.67830002
   0.75809997  0.00000000  0.82169998
   0.00810000  0.50000000  0.67830002
   0.25810000  0.50000000  0.82169998
   0.75809997  0.50000000  0.82169998
   0.17670000  0.25000000  0.55330002
   0.17670000  0.75000000  0.55330002
   0.42670000  0.25000000  0.94669998
   0.42670000  0.75000000  0.94669998
   0.67670000  0.25000000  0.55330002
   0.67670000  0.75000000  0.55330002
   0.92670000  0.25000000  0.94669998
   0.92670000  0.75000000  0.94669998
   0.07330000  0.00000000  0.05330000
   0.32330000  0.00000000  0.44670001
   0.57330000  0.00000000  0.05330000
   0.82330000  0.00000000  0.44670001
   0.07330000  0.50000000  0.05330000
   0.32330000  0.50000000  0.44670001
   0.57330000  0.50000000  0.05330000
   0.82330000  0.50000000  0.44670001
   0.12525000  0.25000000  0.87830001
   0.12525000  0.75000000  0.87830001
   0.37525001  0.25000000  0.62169999
   0.37525001  0.75000000  0.62169999
   0.62524998  0.25000000  0.87830001
   0.62524998  0.75000000  0.87830001
   0.87524998  0.25000000  0.62169999
   0.87524998  0.75000000  0.62169999
   0.12475000  0.00000000  0.37830001
   0.37474999  0.00000000  0.12170000
   0.62475002  0.00000000  0.37830001
   0.87475002  0.00000000  0.12170000
   0.12475000  0.50000000  0.37830001
   0.37474999  0.50000000  0.12170000
   0.62475002  0.50000000  0.37830001
   0.87475002  0.50000000  0.12170000
   0.50809997  0.50000000  0.67830002
 
 position of ions in cartesian coordinates  (Angst):
   2.96971134  1.89608450  1.28118079
   2.96971134  5.68825349  1.28118079
   6.03886323  1.89608450  2.31158656
   6.03886323  5.68825349  2.31158656
   9.10801549  1.89608450  1.28118079
   9.10801549  5.68825349  1.28118079
  12.17716739  1.89608450  2.31158656
  12.17716739  5.68825349  2.31158656
   0.09944052  0.00000000  4.87394835
   3.16859245  0.00000000  5.90435369
   6.23774398  0.00000000  4.87394835
   9.30689587  0.00000000  5.90435369
   0.09944052  3.79216899  4.87394835
   3.16859245  3.79216899  5.90435369
   9.30689587  3.79216899  5.90435369
   2.16927651  1.89608450  3.97575651
   2.16927651  5.68825349  3.97575651
   5.23842840  1.89608450  6.80254553
   5.23842840  5.68825349  6.80254553
   8.30758030  1.89608450  3.97575651
   8.30758030  5.68825349  3.97575651
  11.37673219  1.89608450  6.80254553
  11.37673219  5.68825349  6.80254553
   0.89987530  0.00000000  0.38298901
   3.96902728  0.00000000  3.20977840
   7.03817917  0.00000000  0.38298901
  10.10733107  0.00000000  3.20977840
   0.89987530  3.79216899  0.38298901
   3.96902728  3.79216899  3.20977840
   7.03817917  3.79216899  0.38298901
  10.10733107  3.79216899  3.20977840
   1.53764506  1.89608450  6.31105520
   1.53764506  5.68825349  6.31105520
   4.60679714  1.89608450  4.46724684
   4.60679714  5.68825349  4.46724684
   7.67594867  1.89608450  6.31105520
   7.67594867  5.68825349  6.31105520
  10.74510056  1.89608450  4.46724684
  10.74510056  5.68825349  4.46724684
   1.53150683  0.00000000  2.71828785
   4.60065854  0.00000000  0.87447954
   7.66981081  0.00000000  2.71828785
  10.73896270  0.00000000  0.87447954
   1.53150683  3.79216899  2.71828785
   4.60065854  3.79216899  0.87447954
   7.66981081  3.79216899  2.71828785
  10.73896270  3.79216899  0.87447954
   6.23774398  3.79216899  4.87394835
 


--------------------------------------------------------------------------------------------------------


 k-point   1 :   0.0000 0.0000 0.0000  plane waves:   14461
 k-point   2 :   0.2500 0.0000 0.0000  plane waves:   14514
 k-point   3 :   0.5000 0.0000 0.0000  plane waves:   14526
 k-point   4 :   0.0000 0.1429 0.0000  plane waves:   14504
 k-point   5 :   0.2500 0.1429 0.0000  plane waves:   14492
 k-point   6 :   0.5000 0.1429 0.0000  plane waves:   14502
 k-point   7 :   0.0000 0.2857 0.0000  plane waves:   14540
 k-point   8 :   0.2500 0.2857 0.0000  plane waves:   14540
 k-point   9 :   0.5000 0.2857 0.0000  plane waves:   14504
 k-point  10 :   0.0000 0.4286 0.0000  plane waves:   14544
 k-point  11 :   0.2500 0.4286 0.0000  plane waves:   14527
 k-point  12 :   0.5000 0.4286 0.0000  plane waves:   14526
 k-point  13 :   0.0000 0.0000 0.1429  plane waves:   14481
 k-point  14 :   0.2500 0.0000 0.1429  plane waves:   14483
 k-point  15 :  -0.2500 0.0000 0.1429  plane waves:   14483
 k-point  16 :   0.5000 0.0000 0.1429  plane waves:   14488
 k-point  17 :   0.0000 0.1429 0.1429  plane waves:   14499
 k-point  18 :   0.2500 0.1429 0.1429  plane waves:   14495
 k-point  19 :  -0.2500-0.1429 0.1429  plane waves:   14495
 k-point  20 :   0.5000 0.1429 0.1429  plane waves:   14490
 k-point  21 :   0.0000 0.2857 0.1429  plane waves:   14539
 k-point  22 :   0.2500 0.2857 0.1429  plane waves:   14512
 k-point  23 :  -0.2500-0.2857 0.1429  plane waves:   14512
 k-point  24 :   0.5000 0.2857 0.1429  plane waves:   14508
 k-point  25 :   0.0000 0.4286 0.1429  plane waves:   14528
 k-point  26 :   0.2500 0.4286 0.1429  plane waves:   14526
 k-point  27 :  -0.2500-0.4286 0.1429  plane waves:   14526
 k-point  28 :   0.5000 0.4286 0.1429  plane waves:   14510
 k-point  29 :   0.0000 0.0000 0.2857  plane waves:   14507
 k-point  30 :   0.2500 0.0000 0.2857  plane waves:   14488
 k-point  31 :  -0.2500 0.0000 0.2857  plane waves:   14488
 k-point  32 :   0.5000 0.0000 0.2857  plane waves:   14528
 k-point  33 :   0.0000 0.1429 0.2857  plane waves:   14488
 k-point  34 :   0.2500 0.1429 0.2857  plane waves:   14492
 k-point  35 :  -0.2500-0.1429 0.2857  plane waves:   14492
 k-point  36 :   0.5000 0.1429 0.2857  plane waves:   14512
 k-point  37 :   0.0000 0.2857 0.2857  plane waves:   14503
 k-point  38 :   0.2500 0.2857 0.2857  plane waves:   14497
 k-point  39 :  -0.2500-0.2857 0.2857  plane waves:   14497
 k-point  40 :   0.5000 0.2857 0.2857  plane waves:   14504
 k-point  41 :   0.0000 0.4286 0.2857  plane waves:   14508
 k-point  42 :   0.2500 0.4286 0.2857  plane waves:   14508
 k-point  43 :  -0.2500-0.4286 0.2857  plane waves:   14508
 k-point  44 :   0.5000 0.4286 0.2857  plane waves:   14510
 k-point  45 :   0.0000 0.0000 0.4286  plane waves:   14491
 k-point  46 :   0.2500 0.0000 0.4286  plane waves:   14503
 k-point  47 :  -0.2500 0.0000 0.4286  plane waves:   14503
 k-point  48 :   0.5000 0.0000 0.4286  plane waves:   14496
 k-point  49 :   0.0000 0.1429 0.4286  plane waves:   14490
 k-point  50 :   0.2500 0.1429 0.4286  plane waves:   14471
 k-point  51 :  -0.2500-0.1429 0.4286  plane waves:   14471
 k-point  52 :   0.5000 0.1429 0.4286  plane waves:   14494
 k-point  53 :   0.0000 0.2857 0.4286  plane waves:   14476
 k-point  54 :   0.2500 0.2857 0.4286  plane waves:   14484
 k-point  55 :  -0.2500-0.2857 0.4286  plane waves:   14484
 k-point  56 :   0.5000 0.2857 0.4286  plane waves:   14492
 k-point  57 :   0.0000 0.4286 0.4286  plane waves:   14492
 k-point  58 :   0.2500 0.4286 0.4286  plane waves:   14491
 k-point  59 :  -0.2500-0.4286 0.4286  plane waves:   14491
 k-point  60 :   0.5000 0.4286 0.4286  plane waves:   14476

 maximum and minimum number of plane-waves per node :      2467     2376

 maximum number of plane-waves:     14544
 maximum index in each direction: 
   IXMAX=   21   IYMAX=   13   IZMAX=   12
   IXMIN=  -21   IYMIN=  -13   IZMIN=  -12


 parallel 3D FFT for wavefunctions:
    minimum data exchange during FFTs selected (reduces bandwidth)
 parallel 3D FFT for charge:
    minimum data exchange during FFTs selected (reduces bandwidth)


 total amount of memory used by VASP MPI-rank0   572406. kBytes
=======================================================================

   base      :      30000. kBytes
   nonl-proj :      85352. kBytes
   fftplans  :       4123. kBytes
   grid      :      11698. kBytes
   one-center:        248. kBytes
   wavefun   :     440985. kBytes
 
     INWAV:  cpu time    0.0010: real time    0.0007
 Broyden mixing: mesh for mixing (old mesh)
   NGX = 43   NGY = 27   NGZ = 25
  (NGX  =180   NGY  =108   NGZ  =100)
  gives a total of  29025 points

 initial charge density was supplied:
 charge density of overlapping atoms calculated
 number of electron     337.0000000 magnetization     160.0000000
 keeping initial charge density in first step


--------------------------------------------------------------------------------------------------------


 Maximum index for augmentation-charges          978 (set IRDMAX)


--------------------------------------------------------------------------------------------------------


 First call to EWALD:  gamma=   0.203
 Maximum number of real-space cells 2x 3x 3
 Maximum number of reciprocal cells 4x 2x 2

    FEWALD:  cpu time    0.0030: real time    0.0026


--------------------------------------- Iteration      1(   1)  ---------------------------------------


    POTLOK:  cpu time    0.2320: real time    0.2667
    SETDIJ:  cpu time    0.0310: real time    0.0317
     EDDAV:  cpu time  452.2422: real time  455.0588
       DOS:  cpu time    0.0380: real time    0.0381
    --------------------------------------------
      LOOP:  cpu time  452.5432: real time  455.3953

 eigenvalue-minimisations  : 86400
 total energy-change (2. order) : 0.2712111E+04  (-0.1104234E+05)
 number of electron     337.0000000 magnetization     160.0000000
 augmentation part      337.0000000 magnetization     160.0000000

 Free energy of the ion-electron system (eV)
  ---------------------------------------------------
  alpha Z        PSCENC =      1435.51745289
  Ewald energy   TEWEN  =    -21566.06830238
  -Hartree energ DENC   =     -7194.74057869
  -exchange      EXHF   =         0.00000000
  -V(xc)+E(xc)   XCENC  =       306.62657083
  PAW double counting   =     23377.83946347   -23998.34197029
  entropy T*S    EENTRO =         0.00033062
  eigenvalues    EBANDS =      4583.05119324
  atomic energy  EATOM  =     25768.22672671
  Solvation  Ediel_sol  =         0.00000000
  ---------------------------------------------------
  free energy    TOTEN  =      2712.11088640 eV

  energy without entropy =     2712.11055579  energy(sigma->0) =     2712.11077620


--------------------------------------------------------------------------------------------------------




--------------------------------------- Iteration      1(   2)  ---------------------------------------


     EDDAV:  cpu time  452.8572: real time  454.6581
       DOS:  cpu time    0.0500: real time    0.0515
    --------------------------------------------
      LOOP:  cpu time  452.9081: real time  454.7097

 eigenvalue-minimisations  : 86400
 total energy-change (2. order) :-0.2570461E+04  (-0.2294236E+04)
 number of electron     337.0000000 magnetization     160.0000000
 augmentation part      337.0000000 magnetization     160.0000000

 Free energy of the ion-electron system (eV)
  ---------------------------------------------------
  alpha Z        PSCENC =      1435.51745289
  Ewald energy   TEWEN  =    -21566.06830238
  -Hartree energ DENC   =     -7194.74057869
  -exchange      EXHF   =         0.00000000
  -V(xc)+E(xc)   XCENC  =       306.62657083
  PAW double counting   =     23377.83946347   -23998.34197029
  entropy T*S    EENTRO =        -0.00511399
  eigenvalues    EBANDS =      2012.59570058
  atomic energy  EATOM  =     25768.22672671
  Solvation  Ediel_sol  =         0.00000000
  ---------------------------------------------------
  free energy    TOTEN  =       141.64994914 eV

  energy without entropy =      141.65506313  energy(sigma->0) =      141.65165380


--------------------------------------------------------------------------------------------------------




--------------------------------------- Iteration      1(   3)  ---------------------------------------


     EDDAV:  cpu time  452.1853: real time  454.9391
       DOS:  cpu time    0.0570: real time    0.0562
    --------------------------------------------
      LOOP:  cpu time  452.2412: real time  454.9953

 eigenvalue-minimisations  : 86568
 total energy-change (2. order) :-0.4159140E+03  (-0.3432736E+03)
 number of electron     337.0000000 magnetization     160.0000000
 augmentation part      337.0000000 magnetization     160.0000000

 Free energy of the ion-electron system (eV)
  ---------------------------------------------------
  alpha Z        PSCENC =      1435.51745289
  Ewald energy   TEWEN  =    -21566.06830238
  -Hartree energ DENC   =     -7194.74057869
  -exchange      EXHF   =         0.00000000
  -V(xc)+E(xc)   XCENC  =       306.62657083
  PAW double counting   =     23377.83946347   -23998.34197029
  entropy T*S    EENTRO =         0.05027390
  eigenvalues    EBANDS =      1596.62632441
  atomic energy  EATOM  =     25768.22672671
  Solvation  Ediel_sol  =         0.00000000
  ---------------------------------------------------
  free energy    TOTEN  =      -274.26403915 eV

  energy without entropy =     -274.31431304  energy(sigma->0) =     -274.28079711


--------------------------------------------------------------------------------------------------------




--------------------------------------- Iteration      1(   4)  ---------------------------------------


     EDDAV:  cpu time  531.3652: real time  534.5962
       DOS:  cpu time    0.0590: real time    0.0588
    --------------------------------------------
      LOOP:  cpu time  531.4242: real time  534.6550

 eigenvalue-minimisations  :106560
 total energy-change (2. order) :-0.2876605E+02  (-0.2763390E+02)
 number of electron     337.0000000 magnetization     160.0000000
 augmentation part      337.0000000 magnetization     160.0000000

 Free energy of the ion-electron system (eV)
  ---------------------------------------------------
  alpha Z        PSCENC =      1435.51745289
  Ewald energy   TEWEN  =    -21566.06830238
  -Hartree energ DENC   =     -7194.74057869
  -exchange      EXHF   =         0.00000000
  -V(xc)+E(xc)   XCENC  =       306.62657083
  PAW double counting   =     23377.83946347   -23998.34197029
  entropy T*S    EENTRO =         0.05539500
  eigenvalues    EBANDS =      1567.85514986
  atomic energy  EATOM  =     25768.22672671
  Solvation  Ediel_sol  =         0.00000000
  ---------------------------------------------------
  free energy    TOTEN  =      -303.03009259 eV

  energy without entropy =     -303.08548759  energy(sigma->0) =     -303.04855759


--------------------------------------------------------------------------------------------------------




--------------------------------------- Iteration      1(   5)  ---------------------------------------


     EDDAV:  cpu time  516.7994: real time  519.9248
       DOS:  cpu time    0.0590: real time    0.0584
    CHARGE:  cpu time    5.2492: real time    5.2679
    MIXING:  cpu time    0.0080: real time    0.0096
    --------------------------------------------
      LOOP:  cpu time  522.1156: real time  525.2607

 eigenvalue-minimisations  :103216
 total energy-change (2. order) :-0.7435971E+00  (-0.7419795E+00)
 number of electron     337.0000092 magnetization     135.1301003
 augmentation part      117.8327762 magnetization     110.8562156

 Broyden mixing:
  rms(total) = 0.96773E+01    rms(broyden)= 0.96771E+01
  rms(prec ) = 0.10554E+02
  weight for this iteration     100.00

 Free energy of the ion-electron system (eV)
  ---------------------------------------------------
  alpha Z        PSCENC =      1435.51745289
  Ewald energy   TEWEN  =    -21566.06830238
  -Hartree energ DENC   =     -7194.74057869
  -exchange      EXHF   =         0.00000000
  -V(xc)+E(xc)   XCENC  =       306.62657083
  PAW double counting   =     23377.83946347   -23998.34197029
  entropy T*S    EENTRO =         0.05538880
  eigenvalues    EBANDS =      1567.11155897
  atomic energy  EATOM  =     25768.22672671
  Solvation  Ediel_sol  =         0.00000000
  ---------------------------------------------------
  free energy    TOTEN  =      -303.77368969 eV

  energy without entropy =     -303.82907848  energy(sigma->0) =     -303.79215262


--------------------------------------------------------------------------------------------------------




--------------------------------------- Iteration      1(   6)  ---------------------------------------


    POTLOK:  cpu time    0.2290: real time    0.2383
    SETDIJ:  cpu time    0.0290: real time    0.0297
     EDDAV:  cpu time  545.1381: real time  548.4627
       DOS:  cpu time    0.0570: real time    0.0574
    CHARGE:  cpu time    4.9113: real time    4.9193
    MIXING:  cpu time    0.0130: real time    0.0140
    --------------------------------------------
      LOOP:  cpu time  550.3773: real time  553.7214

 eigenvalue-minimisations  :109024
 total energy-change (2. order) :-0.9991314E+02  (-0.2684872E+02)
 number of electron     337.0000120 magnetization     126.3266479
 augmentation part      160.8325486 magnetization      99.8793858

 Broyden mixing:
  rms(total) = 0.12661E+02    rms(broyden)= 0.12661E+02
  rms(prec ) = 0.14154E+02
  weight for this iteration     100.00

 eigenvalues of (default mixing * dielectric matrix)
  average eigenvalue GAMMA=   0.4648
  0.4648

 Free energy of the ion-electron system (eV)
  ---------------------------------------------------
  alpha Z        PSCENC =      1435.51745289
  Ewald energy   TEWEN  =    -21566.06830238
  -Hartree energ DENC   =     -6196.86887463
  -exchange      EXHF   =         0.00000000
  -V(xc)+E(xc)   XCENC  =       225.86332380
  PAW double counting   =     24942.03922001   -25404.84827103
  entropy T*S    EENTRO =        -0.01756569
  eigenvalues    EBANDS =       392.46945632
  atomic energy  EATOM  =     25768.22672671
  Solvation  Ediel_sol  =         0.00000000
  ---------------------------------------------------
  free energy    TOTEN  =      -403.68683400 eV

  energy without entropy =     -403.66926830  energy(sigma->0) =     -403.68097876


--------------------------------------------------------------------------------------------------------




--------------------------------------- Iteration      1(   7)  ---------------------------------------


    POTLOK:  cpu time    0.2380: real time    0.2450
    SETDIJ:  cpu time    0.0300: real time    0.0300
     EDDAV:  cpu time  533.5589: real time  536.9351
       DOS:  cpu time    0.0550: real time    0.0559
    CHARGE:  cpu time    4.8633: real time    4.8714
    MIXING:  cpu time    0.0080: real time    0.0075
    --------------------------------------------
      LOOP:  cpu time  538.7531: real time  542.1449

 eigenvalue-minimisations  :106432
 total energy-change (2. order) : 0.9983584E+02  (-0.1774824E+02)
 number of electron     337.0000118 magnetization     115.3893597
 augmentation part      154.6963719 magnetization      92.9849918

 Broyden mixing:
  rms(total) = 0.67262E+01    rms(broyden)= 0.67260E+01
  rms(prec ) = 0.83670E+01
  weight for this iteration     100.00

 eigenvalues of (default mixing * dielectric matrix)
  average eigenvalue GAMMA=   0.5614
  0.7533  0.3694

 Free energy of the ion-electron system (eV)
  ---------------------------------------------------
  alpha Z        PSCENC =      1435.51745289
  Ewald energy   TEWEN  =    -21566.06830238
  -Hartree energ DENC   =     -6561.02100189
  -exchange      EXHF   =         0.00000000
  -V(xc)+E(xc)   XCENC  =       240.45963185
  PAW double counting   =     26328.39171090   -26916.33259021
  entropy T*S    EENTRO =         0.01574302
  eigenvalues    EBANDS =       966.95963743
  atomic energy  EATOM  =     25768.22672671
  Solvation  Ediel_sol  =         0.00000000
  ---------------------------------------------------
  free energy    TOTEN  =      -303.85099167 eV

  energy without entropy =     -303.86673469  energy(sigma->0) =     -303.85623935


--------------------------------------------------------------------------------------------------------




--------------------------------------- Iteration      1(   8)  ---------------------------------------


    POTLOK:  cpu time    0.2280: real time    0.2372
    SETDIJ:  cpu time    0.0300: real time    0.0299
     EDDAV:  cpu time  572.4320: real time  574.8911
       DOS:  cpu time    0.0560: real time    0.0560
    CHARGE:  cpu time    4.9662: real time    4.9749
    MIXING:  cpu time    0.0070: real time    0.0073
    --------------------------------------------
      LOOP:  cpu time  577.7192: real time  580.1964

 eigenvalue-minimisations  :115960
[...]
   43       -0.015  -0.124   0.002  -0.137
   44       -0.015  -0.125   0.002  -0.138
   45       -0.016  -0.124   0.002  -0.137
   46       -0.012  -0.113   0.000  -0.124
   47       -0.015  -0.125   0.002  -0.138
   48        0.012  -0.002   2.458   2.468
--------------------------------------------------
tot         -0.207  -2.425  50.973  48.341
 
    CHARGE:  cpu time    4.8893: real time    4.9089
    FORLOC:  cpu time    0.0230: real time    0.0228
    FORNL :  cpu time  106.8498: real time  107.2085
    STRESS:  cpu time  200.1056: real time  200.9241
    FORCOR:  cpu time    0.2370: real time    0.2386
    FORHAR:  cpu time    0.0450: real time    0.0445
    MIXING:  cpu time    0.0140: real time    0.0135
    OFIELD:  cpu time    0.0000: real time    0.0005

  FORCE on cell =-STRESS in cart. coord.  units (eV):
  Direction    XX          YY          ZZ          XY          YZ          ZX
  --------------------------------------------------------------------------------------
  Alpha Z  1435.51745  1435.51745  1435.51745
  Ewald   -7417.77882 -6851.02707 -7297.36076     0.00000     0.00000     0.12388
  Hartree  2176.68033  2456.37680  2088.87620    -0.00000    -0.00000    -0.64440
  E(xc)   -1648.05629 -1650.23628 -1648.48709     0.00000     0.00000     0.04513
  Local    -501.74200 -1310.16543  -510.05240    -0.00000     0.00000     0.76542
  n-local  -279.33046  -259.89235  -264.31242    -0.16758    -0.84658     0.23068
  augment  3347.85137  3330.07226  3322.80316    -0.00000    -0.00000    -0.37441
  Kinetic  2857.19577  2824.15468  2837.90731    -0.22462    -0.12917    -0.34304
  Fock        0.00000     0.00000     0.00000     0.00000     0.00000     0.00000
  -------------------------------------------------------------------------------------
  Total     -29.66265   -25.19994   -35.10855     0.00000     0.00000    -0.19674
  in kB     -71.03386   -60.34690   -84.07528     0.00000     0.00000    -0.47113
  external pressure =      -71.82 kB  Pullay stress =        0.00 kB


 VOLUME and BASIS-vectors are now :
 -----------------------------------------------------------------------------
  energy-cutoff  :      450.00
  volume of cell :      669.04
      direct lattice vectors                 reciprocal lattice vectors
    12.276607578  0.000000000  0.000000000     0.081455727  0.000000000  0.000000000
     0.000000000  7.584337984  0.000000000     0.000000000  0.131850664  0.000000000
     0.000000000  0.000000000  7.185534695     0.000000000  0.000000000  0.139168488

  length of vectors
    12.276607578  7.584337984  7.185534695     0.081455727  0.131850664  0.139168488


 FORCES acting on ions
    electron-ion (+dipol)            ewald-force                    non-local-force                 convergence-correction
 -----------------------------------------------------------------------------------------------
   0.102E+02 0.999E+00 0.342E+02   -.101E+02 -.973E+00 -.342E+02   -.584E+00 -.154E-01 0.232E+00   -.246E-01 -.630E-03 -.623E-02
   0.102E+02 -.999E+00 0.342E+02   -.101E+02 0.973E+00 -.342E+02   -.584E+00 0.154E-01 0.232E+00   -.246E-01 0.630E-03 -.623E-02
   0.683E+01 0.470E+01 -.295E+02   -.672E+01 -.478E+01 0.294E+02   -.622E+00 0.611E-01 -.159E+00   -.303E-02 -.270E-02 -.107E-01
   0.683E+01 -.470E+01 -.295E+02   -.672E+01 0.478E+01 0.294E+02   -.622E+00 -.611E-01 -.159E+00   -.303E-02 0.270E-02 -.107E-01
   0.165E+01 0.120E+01 0.342E+02   -.149E+01 -.123E+01 -.342E+02   -.675E+00 0.272E-01 0.225E+00   0.230E-01 0.447E-03 -.774E-02
   0.165E+01 -.120E+01 0.342E+02   -.149E+01 0.123E+01 -.342E+02   -.675E+00 -.272E-01 0.225E+00   0.230E-01 -.447E-03 -.774E-02
   0.566E+01 0.270E+00 -.340E+02   -.556E+01 -.266E+00 0.340E+02   -.626E+00 -.681E-02 -.224E+00   0.448E-02 -.660E-03 -.155E-01
   0.566E+01 -.270E+00 -.340E+02   -.556E+01 0.266E+00 0.340E+02   -.626E+00 0.681E-02 -.224E+00   0.448E-02 0.660E-03 -.155E-01
   -.602E+01 -.199E-12 0.342E+02   0.592E+01 0.682E-14 -.342E+02   0.618E+00 0.000E+00 0.215E+00   -.727E-03 0.706E-13 0.162E-01
   -.163E+01 -.759E-13 -.348E+02   0.144E+01 0.207E-13 0.348E+02   0.707E+00 0.000E+00 -.263E+00   -.240E-01 0.689E-13 0.808E-02
   -.596E+01 0.412E-13 0.342E+02   0.592E+01 0.599E-15 -.342E+02   0.638E+00 0.000E+00 0.231E+00   -.361E-03 0.975E-13 0.597E-02
   -.105E+02 -.515E-13 -.349E+02   0.104E+02 0.432E-13 0.348E+02   0.576E+00 0.000E+00 -.219E+00   0.257E-01 0.821E-13 0.631E-02
   -.602E+01 0.217E-12 0.342E+02   0.592E+01 0.735E-14 -.342E+02   0.634E+00 0.000E+00 0.222E+00   -.168E-02 0.336E-13 0.151E-01
   0.354E+01 0.125E-11 -.364E+02   -.358E+01 0.282E-13 0.364E+02   0.700E+00 0.000E+00 -.266E+00   -.274E-01 0.447E-13 0.758E-02
   -.155E+02 0.348E-11 -.364E+02   0.154E+02 0.514E-13 0.364E+02   0.576E+00 0.000E+00 -.236E+00   0.293E-01 0.314E-13 0.861E-02
   0.755E+02 0.144E+01 -.381E+02   -.752E+02 -.142E+01 0.387E+02   -.561E-01 -.220E-01 -.229E+00   -.226E-01 0.444E-03 0.170E-02
   0.755E+02 -.144E+01 -.381E+02   -.752E+02 0.142E+01 0.387E+02   -.561E-01 0.220E-01 -.229E+00   -.226E-01 -.444E-03 0.170E-02
   0.763E+02 0.919E+01 0.301E+02   -.760E+02 -.920E+01 -.307E+02   -.895E-01 0.553E-01 0.201E+00   -.184E-01 -.735E-02 0.120E-01
   0.763E+02 -.919E+01 0.301E+02   -.760E+02 0.920E+01 -.307E+02   -.895E-01 -.553E-01 0.201E+00   -.184E-01 0.735E-02 0.120E-01
   0.565E+02 0.819E+01 -.348E+02   -.561E+02 -.825E+01 0.354E+02   -.234E+00 0.694E-01 -.203E+00   0.374E-01 -.643E-02 0.674E-03
   0.565E+02 -.819E+01 -.348E+02   -.561E+02 0.825E+01 0.354E+02   -.234E+00 -.694E-01 -.203E+00   0.374E-01 0.643E-02 0.674E-03
   0.667E+02 0.555E+00 0.384E+02   -.663E+02 -.547E+00 -.390E+02   -.127E+00 -.748E-02 0.227E+00   0.228E-01 -.906E-03 0.607E-02
   0.667E+02 -.555E+00 0.384E+02   -.663E+02 0.547E+00 -.390E+02   -.127E+00 0.748E-02 0.227E+00   0.228E-01 0.906E-03 0.607E-02
   -.676E+02 0.335E-13 -.390E+02   0.672E+02 0.162E-13 0.396E+02   0.152E+00 0.000E+00 -.218E+00   -.194E-01 0.106E-12 -.638E-02
   -.632E+02 0.158E-12 0.406E+02   0.628E+02 0.192E-13 -.413E+02   0.261E+00 0.000E+00 0.245E+00   -.317E-01 0.146E-12 -.436E-02
   -.719E+02 0.112E-12 -.409E+02   0.716E+02 0.329E-13 0.415E+02   0.942E-01 0.000E+00 -.242E+00   0.102E-01 0.116E-12 -.244E-02
   -.742E+02 -.530E-13 0.395E+02   0.739E+02 -.109E-13 -.401E+02   0.390E-01 0.000E+00 0.240E+00   0.238E-01 0.149E-12 -.152E-02
   -.671E+02 0.152E-11 -.392E+02   0.667E+02 0.228E-14 0.398E+02   0.143E+00 0.000E+00 -.206E+00   -.201E-01 0.644E-13 -.618E-02
   -.536E+02 0.569E-11 0.471E+02   0.532E+02 0.523E-14 -.477E+02   0.215E+00 0.000E+00 0.267E+00   -.417E-01 0.770E-13 -.102E-01
   -.757E+02 0.988E-11 -.503E+02   0.753E+02 0.373E-13 0.507E+02   0.380E-01 0.000E+00 -.136E+00   0.153E-01 0.699E-13 0.785E-02
   -.770E+02 0.240E-11 0.405E+02   0.766E+02 -.115E-13 -.411E+02   0.129E+00 0.000E+00 0.195E+00   0.251E-01 0.802E-13 -.118E-02
   -.304E+02 0.320E+00 0.140E+02   0.307E+02 -.315E+00 -.137E+02   -.742E+00 -.238E-02 -.616E+00   -.133E-01 -.103E-02 0.743E-02
   -.304E+02 -.320E+00 0.140E+02   0.307E+02 0.315E+00 -.137E+02   -.742E+00 0.238E-02 -.616E+00   -.133E-01 0.103E-02 0.743E-02
   -.259E+02 0.563E+01 -.129E+02   0.261E+02 -.562E+01 0.127E+02   -.558E+00 0.197E+00 0.623E+00   -.155E-01 -.436E-02 0.142E-02
   -.259E+02 -.563E+01 -.129E+02   0.261E+02 0.562E+01 0.127E+02   -.558E+00 -.197E+00 0.623E+00   -.155E-01 0.436E-02 0.142E-02
   -.363E+02 0.408E+01 0.111E+02   0.366E+02 -.411E+01 -.108E+02   -.852E+00 0.942E-01 -.688E+00   0.110E-01 -.248E-02 0.578E-02
   -.363E+02 -.408E+01 0.111E+02   0.366E+02 0.411E+01 -.108E+02   -.852E+00 -.942E-01 -.688E+00   0.110E-01 0.248E-02 0.578E-02
   -.340E+02 0.427E+00 -.141E+02   0.343E+02 -.416E+00 0.138E+02   -.766E+00 -.957E-03 0.613E+00   0.787E-02 0.161E-03 0.656E-02
   -.340E+02 -.427E+00 -.141E+02   0.343E+02 0.416E+00 0.138E+02   -.766E+00 0.957E-03 0.613E+00   0.787E-02 -.161E-03 0.656E-02
   0.333E+02 0.342E-13 0.144E+02   -.336E+02 -.262E-13 -.141E+02   0.765E+00 0.000E+00 -.606E+00   -.711E-02 0.566E-14 -.666E-02
   0.338E+02 -.121E-12 -.146E+02   -.341E+02 -.387E-14 0.142E+02   0.760E+00 0.000E+00 0.601E+00   -.933E-02 0.239E-14 -.347E-02
   0.302E+02 0.445E-13 0.152E+02   -.305E+02 -.642E-14 -.149E+02   0.748E+00 0.000E+00 -.607E+00   0.101E-01 0.119E-13 -.255E-02
   0.307E+02 -.208E-12 -.143E+02   -.310E+02 -.119E-13 0.140E+02   0.744E+00 0.000E+00 0.610E+00   0.147E-01 0.521E-14 -.772E-02
   0.337E+02 0.107E-12 0.145E+02   -.340E+02 -.272E-13 -.142E+02   0.765E+00 0.000E+00 -.610E+00   -.638E-02 -.119E-13 -.570E-02
   0.351E+02 0.831E-12 -.155E+02   -.354E+02 -.324E-14 0.152E+02   0.761E+00 0.000E+00 0.629E+00   -.961E-02 -.162E-13 -.175E-02
   0.269E+02 -.127E-11 0.198E+02   -.271E+02 0.659E-14 -.194E+02   0.571E+00 0.000E+00 -.409E+00   0.132E-01 -.173E-13 -.791E-02
   0.303E+02 0.524E-12 -.144E+02   -.306E+02 -.139E-13 0.140E+02   0.753E+00 0.000E+00 0.619E+00   0.136E-01 -.214E-13 -.782E-02
   -.693E+01 0.637E-11 0.391E+02   0.676E+01 -.118E-13 -.390E+02   0.549E+00 0.000E+00 0.908E-01   -.628E-03 0.559E-13 0.711E-02
 -----------------------------------------------------------------------------------------------
   -.673E-01 0.655E-10 -.157E+00   -.622E-13 -.851E-13 0.391E-12   0.681E-01 0.000E+00 0.147E+00   -.511E-03 0.270E-11 0.987E-02
 
 
 POSITION                                       TOTAL-FORCE (eV/Angst)
 -----------------------------------------------------------------------------------
      2.96971      1.89608      1.28118        -0.533514      0.009687      0.234757
      2.96971      5.68825      1.28118        -0.533514     -0.009687      0.234757
      6.03886      1.89608      2.31159        -0.513512     -0.024138     -0.243779
      6.03886      5.68825      2.31159        -0.513512      0.024138     -0.243779
      9.10802      1.89608      1.28118        -0.498633     -0.001863      0.247375
      9.10802      5.68825      1.28118        -0.498633      0.001863      0.247375
     12.17717      1.89608      2.31159        -0.522890     -0.003971     -0.245452
     12.17717      5.68825      2.31159        -0.522890      0.003971     -0.245452
      0.09944      0.00000      4.87395         0.515443      0.000000      0.240944
      3.16859      0.00000      5.90435         0.493806      0.000000     -0.229115
      6.23774      0.00000      4.87395         0.589005      0.000000      0.249826
      9.30690      0.00000      5.90435         0.536870      0.000000     -0.247955
      0.09944      3.79217      4.87395         0.522463      0.000000      0.248872
      3.16859      3.79217      5.90435         0.625452      0.000000     -0.280261
      9.30690      3.79217      5.90435         0.487434      0.000000     -0.271215
      2.16928      1.89608      3.97576         0.275820     -0.001162      0.382956
      2.16928      5.68825      3.97576         0.275820      0.001162      0.382956
      5.23843      1.89608      6.80255         0.262155      0.036017     -0.390852
      5.23843      5.68825      6.80255         0.262155     -0.036017     -0.390852
      8.30758      1.89608      3.97576         0.207323      0.009818      0.356947
      8.30758      5.68825      3.97576         0.207323     -0.009818      0.356947
     11.37673      1.89608      6.80255         0.244441      0.000006     -0.376336
     11.37673      5.68825      6.80255         0.244441     -0.000006     -0.376336
      0.89988      0.00000      0.38299        -0.237091      0.000000      0.386547
      3.96903      0.00000      3.20978        -0.211665      0.000000     -0.383864
      7.03818      0.00000      0.38299        -0.233937      0.000000      0.375638
     10.10733      0.00000      3.20978        -0.265540      0.000000     -0.376256
      0.89988      3.79217      0.38299        -0.241148      0.000000      0.392397
      3.96903      3.79217      3.20978        -0.202301      0.000000     -0.362800
      7.03818      3.79217      0.38299        -0.332156      0.000000      0.337842
     10.10733      3.79217      3.20978        -0.259334      0.000000     -0.394115
      1.53765      1.89608      6.31106        -0.460304      0.001587     -0.297453
      1.53765      5.68825      6.31106        -0.460304     -0.001587     -0.297453
      4.60680      1.89608      4.46725        -0.370055      0.203865      0.364708
      4.60680      5.68825      4.46725        -0.370055     -0.203865      0.364708
      7.67595      1.89608      6.31106        -0.529514      0.066692     -0.361768
      7.67595      5.68825      6.31106        -0.529514     -0.066692     -0.361768
     10.74510      1.89608      4.46725        -0.450694      0.010126      0.310324
     10.74510      5.68825      4.46725        -0.450694     -0.010126      0.310324
      1.53151      0.00000      2.71829         0.431603      0.000000     -0.295152
      4.60066      0.00000      0.87448         0.477123      0.000000      0.253180
      7.66981      0.00000      2.71829         0.447703      0.000000     -0.291687
     10.73896      0.00000      0.87448         0.467929      0.000000      0.294295
      1.53151      3.79217      2.71829         0.449386      0.000000     -0.290563
      4.60066      3.79217      0.87448         0.436246      0.000000      0.297792
      7.66981      3.79217      2.71829         0.447784      0.000000     -0.023999
     10.73896      3.79217      0.87448         0.457011      0.000000      0.292722
      6.23774      3.79217      4.87395         0.376667      0.000000      0.114072
 -----------------------------------------------------------------------------------
    total drift:                                0.000362      0.000000     -0.000050


--------------------------------------------------------------------------------------------------------



  FREE ENERGIE OF THE ION-ELECTRON SYSTEM (eV)
  ---------------------------------------------------
  free  energy   TOTEN  =      -312.31519237 eV

  energy  without entropy=     -312.39969669  energy(sigma->0) =     -312.34336048
 


--------------------------------------------------------------------------------------------------------


    POTLOK:  cpu time    0.2580: real time    0.2595


--------------------------------------------------------------------------------------------------------


     LOOP+:  cpu time20791.3102: real time20909.4412
    4ORBIT:  cpu time    0.0000: real time    0.0000
 


 total charge     
 
# of ion       s       p       d       tot
------------------------------------------
    1        0.250   0.270   5.031   5.551
    2        0.250   0.270   5.031   5.551
    3        0.251   0.270   5.028   5.549
    4        0.251   0.270   5.028   5.549
    5        0.250   0.269   5.031   5.551
    6        0.250   0.269   5.031   5.551
    7        0.250   0.270   5.032   5.552
    8        0.250   0.270   5.032   5.552
    9        0.250   0.269   5.032   5.552
   10        0.250   0.269   5.031   5.551
   11        0.251   0.270   5.032   5.553
   12        0.250   0.269   5.031   5.551
   13        0.250   0.270   5.031   5.551
   14        0.250   0.269   5.032   5.550
   15        0.250   0.269   5.032   5.551
   16        0.431   0.484   8.414   9.329
   17        0.431   0.484   8.414   9.329
   18        0.431   0.481   8.413   9.326
   19        0.431   0.481   8.413   9.326
   20        0.431   0.482   8.413   9.326
   21        0.431   0.482   8.413   9.326
   22        0.431   0.484   8.414   9.329
   23        0.431   0.484   8.414   9.329
   24        0.431   0.484   8.413   9.329
   25        0.432   0.483   8.415   9.329
   26        0.432   0.484   8.414   9.330
   27        0.432   0.483   8.415   9.330
   28        0.431   0.484   8.413   9.329
   29        0.431   0.482   8.413   9.325
   30        0.431   0.481   8.413   9.325
   31        0.432   0.484   8.414   9.330
   32        1.102   1.297   0.114   2.514
   33        1.102   1.297   0.114   2.514
   34        1.102   1.286   0.115   2.503
   35        1.102   1.286   0.115   2.503
   36        1.103   1.290   0.114   2.507
   37        1.103   1.290   0.114   2.507
   38        1.102   1.297   0.114   2.514
   39        1.102   1.297   0.114   2.514
   40        1.102   1.298   0.114   2.514
   41        1.103   1.297   0.114   2.514
   42        1.102   1.297   0.114   2.513
   43        1.102   1.297   0.114   2.513
   44        1.102   1.297   0.114   2.514
   45        1.102   1.298   0.114   2.514
   46        1.103   1.286   0.115   2.504
   47        1.102   1.297   0.114   2.513
   48        0.318   0.349   6.212   6.878
--------------------------------------------------
tot         28.610  32.824 218.126 279.560
 


 magnetization (x)
 
# of ion       s       p       d       tot
------------------------------------------
    1        0.020   0.011   3.152   3.183
    2        0.020   0.011   3.152   3.183
    3        0.021   0.012   3.172   3.205
    4        0.021   0.012   3.172   3.205
    5        0.020   0.011   3.153   3.184
    6        0.020   0.011   3.153   3.184
    7        0.020   0.010   3.143   3.174
    8        0.020   0.010   3.143   3.174
    9        0.020   0.010   3.141   3.172
   10        0.021   0.011   3.155   3.186
   11        0.020   0.012   3.142   3.174
   12        0.021   0.011   3.152   3.184
   13        0.020   0.010   3.148   3.179
   14        0.020   0.011   3.140   3.171
   15        0.021   0.011   3.133   3.165
   16       -0.019  -0.042   0.079   0.018
   17       -0.019  -0.042   0.079   0.018
   18       -0.018  -0.040   0.075   0.017
   19       -0.018  -0.040   0.075   0.017
   20       -0.018  -0.040   0.080   0.022
   21       -0.018  -0.040   0.080   0.022
   22       -0.019  -0.042   0.074   0.012
   23       -0.019  -0.042   0.074   0.012
   24       -0.019  -0.042   0.074   0.013
   25       -0.018  -0.040   0.090   0.033
   26       -0.019  -0.041   0.079   0.019
   27       -0.019  -0.041   0.076   0.017
   28       -0.019  -0.042   0.076   0.015
   29       -0.018  -0.041   0.068   0.009
   30       -0.018  -0.039   0.084   0.027
   31       -0.020  -0.042   0.077   0.015
   32       -0.015  -0.124   0.002  -0.138
   33       -0.015  -0.124   0.002  -0.138
   34       -0.012  -0.112   0.000  -0.124
   35       -0.012  -0.112   0.000  -0.124
   36       -0.014  -0.115   0.001  -0.128
   37       -0.014  -0.115   0.001  -0.128
   38       -0.015  -0.125   0.002  -0.138
   39       -0.015  -0.125   0.002  -0.138
   40       -0.015  -0.125   0.002  -0.138
   41       -0.014  -0.124   0.002  -0.136
   42       -0.015  -0.123   0.002  -0.136
   43       -0.015  -0.124   0.002  -0.137
   44       -0.015  -0.125   0.002  -0.138
   45       -0.016  -0.124   0.002  -0.137
   46       -0.012  -0.113   0.000  -0.124
   47       -0.015  -0.125   0.002  -0.138
   48        0.012  -0.002   2.458   2.468
--------------------------------------------------
tot         -0.207  -2.425  50.973  48.341
 

 total amount of memory used by VASP MPI-rank0   572406. kBytes
=======================================================================

   base      :      30000. kBytes
   nonl-proj :      85352. kBytes
   fftplans  :       4123. kBytes
   grid      :      11698. kBytes
   one-center:        248. kBytes
   wavefun   :     440985. kBytes
 
  
  
 General timing and accounting informations for this job:
 ========================================================
  
                  Total CPU time used (sec):    21026.336
                            User time (sec):    20904.911
                          System time (sec):      121.426
                         Elapsed time (sec):    21147.536
  
                   Maximum memory used (kb):      811308.
                   Average memory used (kb):           0.
  
                          Minor page faults:        70032
                          Major page faults:            9
                 Voluntary context switches:         2883
