 running on   24 total cores
 distrk:  each k-point on   24 cores,    1 groups
 distr:  one band on    6 cores,    4 groups
 using from now: INCAR     
 vasp.6.1.1 19Jun20 (build Nov 30 2020 11:51:22) complex                        
  
 POSCAR found type information on POSCAR MnNiGeFe
 POSCAR found :  4 types and      48 ions
 scaLAPACK will be used
 -----------------------------------------------------------------------------
|                                                                             |
|               ----> ADVICE to this user running VASP <----                  |
|                                                                             |
|     You have a (more or less) 'large supercell' and for larger cells it     |
|     might be more efficient to use real-space projection operators.         |
|     Therefore, try LREAL= Auto in the INCAR file.                           |
|     Mind: For very accurate calculation, you might also keep the            |
|     reciprocal projection scheme (i.e. LREAL=.FALSE.).                      |
|                                                                             |
 -----------------------------------------------------------------------------

 LDA part: xc-table for Pade appr. of Perdew
 POSCAR, INCAR and KPOINTS ok, starting setup
 FFT: planning ...
 WAVECAR not read
 entering main loop
       N       E                     dE             d eps       ncg     rms          rms(c)
DAV:   1     0.275510814662E+04    0.27551E+04   -0.10214E+05 43200   0.100E+03
DAV:   2     0.115531591847E+03   -0.26396E+04   -0.23496E+04 43200   0.268E+02
DAV:   3    -0.316484294970E+03   -0.43202E+03   -0.35326E+03 43264   0.124E+02
DAV:   4    -0.348663041317E+03   -0.32179E+02   -0.30775E+02 52976   0.402E+01
DAV:   5    -0.349463217124E+03   -0.80018E+00   -0.79852E+00 51520   0.660E+00    0.630E+01
DAV:   6    -0.373221258415E+03   -0.23758E+02   -0.15888E+02 60312   0.830E+01    0.115E+02
DAV:   7    -0.358073780231E+03    0.15147E+02   -0.10782E+02 60248   0.136E+02    0.791E+01
DAV:   8    -0.336058600273E+03    0.22015E+02   -0.64222E+01 64048   0.594E+01    0.657E+01
DAV:   9    -0.319065720295E+03    0.16993E+02   -0.24872E+01 66848   0.311E+01    0.582E+01
DAV:  10    -0.333130862917E+03   -0.14065E+02   -0.28213E+01 62344   0.468E+01    0.699E+01
DAV:  11    -0.318652711481E+03    0.14478E+02   -0.17139E+01 58128   0.307E+01    0.570E+01
DAV:  12    -0.304610907797E+03    0.14042E+02   -0.10837E+01 59656   0.235E+01    0.283E+01
DAV:  13    -0.303325298707E+03    0.12856E+01   -0.54538E+00 70024   0.110E+01    0.208E+01
DAV:  14    -0.302710917031E+03    0.61438E+00   -0.21476E+00 61696   0.978E+00    0.167E+01
DAV:  15    -0.302253407958E+03    0.45751E+00   -0.14052E+00 61736   0.626E+00    0.130E+01
DAV:  16    -0.301950277635E+03    0.30313E+00   -0.47428E-01 58720   0.485E+00    0.986E+00
DAV:  17    -0.302499031338E+03   -0.54875E+00   -0.10097E+00 58448   0.518E+00    0.174E+01
DAV:  18    -0.301843438698E+03    0.65559E+00   -0.10243E+00 58936   0.442E+00    0.947E+00
DAV:  19    -0.301729261687E+03    0.11418E+00   -0.28355E-01 57712   0.523E+00    0.685E+00
DAV:  20    -0.301872523882E+03   -0.14326E+00   -0.47541E-01 60472   0.367E+00    0.101E+01
DAV:  21    -0.301603305047E+03    0.26922E+00   -0.28684E-01 61056   0.348E+00    0.369E+00
DAV:  22    -0.301759246788E+03   -0.15594E+00   -0.26634E-01 59952   0.336E+00    0.805E+00
DAV:  23    -0.301693175927E+03    0.66071E-01   -0.25121E-01 59240   0.240E+00    0.654E+00
DAV:  24    -0.301628150837E+03    0.65025E-01   -0.63400E-02 58056   0.258E+00    0.490E+00
DAV:  25    -0.301567157324E+03    0.60994E-01   -0.54081E-02 57264   0.153E+00    0.197E+00
DAV:  26    -0.301561298791E+03    0.58585E-02   -0.12639E-02 66048   0.532E-01    0.151E+00
DAV:  27    -0.301556512544E+03    0.47862E-02   -0.37952E-03 57752   0.569E-01    0.962E-01
DAV:  28    -0.301555103726E+03    0.14088E-02   -0.31410E-03 57544   0.595E-01    0.929E-01
DAV:  29    -0.301558871893E+03   -0.37682E-02   -0.78391E-03 60568   0.435E-01    0.145E+00
DAV:  30    -0.301553225592E+03    0.56463E-02   -0.71250E-03 59424   0.502E-01    0.380E-01
DAV:  31    -0.301552961438E+03    0.26415E-03   -0.13789E-03 58152   0.264E-01    0.389E-01
DAV:  32    -0.301552710946E+03    0.25049E-03   -0.71133E-04 68432   0.133E-01    0.243E-01
DAV:  33    -0.301552580627E+03    0.13032E-03   -0.24473E-04 57040   0.120E-01    0.123E-01
DAV:  34    -0.301552612710E+03   -0.32083E-04   -0.13605E-04 57160   0.123E-01    0.132E-01
DAV:  35    -0.301552550803E+03    0.61906E-04   -0.68291E-05 56008   0.941E-02    0.859E-02
DAV:  36    -0.301552532581E+03    0.18223E-04   -0.16516E-05 71880   0.331E-02    0.480E-02
DAV:  37    -0.301552526291E+03    0.62901E-05   -0.10903E-05 51128   0.293E-02    0.220E-02
DAV:  38    -0.301552523981E+03    0.23094E-05   -0.56039E-06 39632   0.159E-02    0.173E-02
DAV:  39    -0.301552523480E+03    0.50130E-06   -0.21075E-06 29952   0.121E-02
   1 F= -.30155252E+03 E0= -.30155030E+03  d E =-.667524E-02
