 running on   24 total cores
 distrk:  each k-point on   24 cores,    1 groups
 distr:  one band on    6 cores,    4 groups
 using from now: INCAR     
 vasp.6.1.1 19Jun20 (build Nov 30 2020 11:51:22) complex                        
  
 POSCAR found type information on POSCAR MnNiGeFe
 POSCAR found :  4 types and      48 ions
 scaLAPACK will be used
 -----------------------------------------------------------------------------
|                                                                             |
|               ----> ADVICE to this user running VASP <----                  |
|                                                                             |
|     You have a (more or less) 'large supercell' and for larger cells it     |
|     might be more efficient to use real-space projection operators.         |
|     Therefore, try LREAL= Auto in the INCAR file.                           |
|     Mind: For very accurate calculation, you might also keep the            |
|     reciprocal projection scheme (i.e. LREAL=.FALSE.).                      |
|                                                                             |
 -----------------------------------------------------------------------------

 LDA part: xc-table for Pade appr. of Perdew
 POSCAR, INCAR and KPOINTS ok, starting setup
 FFT: planning ...
 WAVECAR not read
 entering main loop
       N       E                     dE             d eps       ncg     rms          rms(c)
DAV:   1     0.283993209925E+04    0.28399E+04   -0.10870E+05 86400   0.105E+03
DAV:   2     0.184163258069E+03   -0.26558E+04   -0.23636E+04 86400   0.267E+02
DAV:   3    -0.265512077269E+03   -0.44968E+03   -0.37173E+03 86496   0.126E+02
DAV:   4    -0.297595143175E+03   -0.32083E+02   -0.30825E+02106064   0.398E+01
DAV:   5    -0.298413756618E+03   -0.81861E+00   -0.81691E+00104080   0.658E+00    0.105E+02
DAV:   6    -0.369197639649E+03   -0.70784E+02   -0.22035E+02109336   0.107E+02    0.111E+02
DAV:   7    -0.311134422974E+03    0.58063E+02   -0.18974E+02105912   0.949E+01    0.762E+01
DAV:   8    -0.328916939417E+03   -0.17783E+02   -0.41922E+01115376   0.679E+01    0.807E+01
DAV:   9    -0.311756327743E+03    0.17161E+02   -0.38603E+01120208   0.493E+01    0.475E+01
DAV:  10    -0.312049983863E+03   -0.29366E+00   -0.24134E+01117872   0.521E+01    0.580E+01
DAV:  11    -0.300882303387E+03    0.11168E+02   -0.20912E+01136144   0.338E+01    0.275E+01
DAV:  12    -0.310137732715E+03   -0.92554E+01   -0.81466E+00126160   0.250E+01    0.324E+01
DAV:  13    -0.307861502425E+03    0.22762E+01   -0.52810E+00123864   0.247E+01    0.146E+01
DAV:  14    -0.313814906922E+03   -0.59534E+01   -0.44235E+00143848   0.181E+01    0.239E+01
DAV:  15    -0.312377650035E+03    0.14373E+01   -0.36298E+00127672   0.170E+01    0.957E+00
DAV:  16    -0.312585763913E+03   -0.20811E+00   -0.98648E-01134928   0.724E+00    0.754E+00
DAV:  17    -0.312504257999E+03    0.81506E-01   -0.42961E-01115168   0.572E+00    0.461E+00
DAV:  18    -0.312567800842E+03   -0.63543E-01   -0.18493E-01127536   0.245E+00    0.277E+00
DAV:  19    -0.312596669976E+03   -0.28869E-01   -0.85612E-02118976   0.319E+00    0.255E+00
DAV:  20    -0.312580754317E+03    0.15916E-01   -0.48803E-02119592   0.229E+00    0.130E+00
DAV:  21    -0.312588869409E+03   -0.81151E-02   -0.22631E-02130624   0.107E+00    0.134E+00
DAV:  22    -0.312587382112E+03    0.14873E-02   -0.13217E-02112456   0.960E-01    0.113E+00
DAV:  23    -0.312586770771E+03    0.61134E-03   -0.40868E-03121560   0.447E-01    0.771E-01
DAV:  24    -0.312586632923E+03    0.13785E-03   -0.24916E-03115976   0.483E-01    0.692E-01
DAV:  25    -0.312585079343E+03    0.15536E-02   -0.13141E-03132096   0.324E-01    0.370E-01
DAV:  26    -0.312584981762E+03    0.97580E-04   -0.63873E-04146096   0.176E-01    0.280E-01
DAV:  27    -0.312584843760E+03    0.13800E-03   -0.32061E-04117096   0.154E-01    0.184E-01
DAV:  28    -0.312584839594E+03    0.41657E-05   -0.77241E-05121328   0.677E-02    0.136E-01
DAV:  29    -0.312584830936E+03    0.86581E-05   -0.55722E-05116672   0.653E-02    0.113E-01
DAV:  30    -0.312584830162E+03    0.77393E-06   -0.24401E-05152696   0.333E-02    0.726E-02
DAV:  31    -0.312584832025E+03   -0.18635E-05   -0.15367E-05127896   0.373E-02    0.514E-02
DAV:  32    -0.312584828685E+03    0.33401E-05   -0.93725E-06119160   0.277E-02    0.279E-02
DAV:  33    -0.312584830283E+03   -0.15981E-05   -0.28747E-06 66280   0.136E-02    0.182E-02
DAV:  34    -0.312584830583E+03   -0.29936E-06   -0.39024E-06 85072   0.146E-02
   1 F= -.31258483E+03 E0= -.31259584E+03  d E =0.330279E-01  mag=    45.6073
