 vasp.6.1.1 19Jun20 (build Nov 30 2020 11:51:22) complex                        
  
 executed on             LinuxIFC date 2021.03.26  16:55:40
 running on   24 total cores
 distrk:  each k-point on   24 cores,    1 groups
 distr:  one band on NCORE=   6 cores,    4 groups


--------------------------------------------------------------------------------------------------------


 INCAR:
 POTCAR:    PAW_PBE Mn 06Sep2000                  
 POTCAR:    PAW_PBE Ni 02Aug2007                  
 POTCAR:    PAW_PBE Ge 05Jan2001                  
 POTCAR:    PAW_PBE Fe 06Sep2000                  
 POTCAR:    PAW_PBE Mn 06Sep2000                  
   SHA256 =  791c87526310ff945dc83749a51ee60ee299d345ff72743aeb14609b9ed68bfc Mn/POTCAR             
   COPYR  = (c) Copyright 06Sep2000 Georg Kresse                                                    
   COPYR  = This file is part of the software VASP. Any use, copying, and all other rights are regul
   COPYR  = If you do not have a valid VASP license, you may not use, copy or distribute this file. 
   VRHFIN =Mn: d6 s1                                                                                
   LEXCH  = PE                                                                                      
   EATOM  =   416.7541 eV,   30.6306 Ry                                                             
                                                                                                    
   TITEL  = PAW_PBE Mn 06Sep2000                                                                    
   LULTRA =        F    use ultrasoft PP ?                                                          
   IUNSCR =        1    unscreen: 0-lin 1-nonlin 2-no                                               
   RPACOR =    2.000    partial core radius                                                         
   POMASS =   54.938; ZVAL   =    7.000    mass and valenz                                          
   RCORE  =    2.300    outmost cutoff radius                                                       
   RWIGS  =    2.500; RWIGS  =    1.323    wigner-seitz radius (au A)                               
   ENMAX  =  269.864; ENMIN  =  202.398 eV                                                          
   RCLOC  =    1.725    cutoff for local pot                                                        
   LCOR   =        T    correct aug charges                                                         
   LPAW   =        T    paw PP                                                                      
   EAUG   =  500.711                                                                                
   DEXC   =    0.000                                                                                
   RMAX   =    2.343    core radius for proj-oper                                                   
   RAUG   =    1.300    factor for augmentation sphere                                              
   RDEP   =    2.338    radius for radial grids                                                     
   RDEPT  =    1.911    core radius for aug-charge                                                  
                                                                                                    
   Atomic configuration                                                                             
    9 entries                                                                                       
     n  l   j            E        occ.                                                              
     1  0  0.50     -6424.8288   2.0000                                                             
     2  0  0.50      -739.1154   2.0000                                                             
     2  1  1.50      -625.3949   6.0000                                                             
     3  0  0.50       -81.6100   2.0000                                                             
     3  1  1.50       -50.4667   6.0000                                                             
     3  2  2.50        -3.3745   6.0000                                                             
     4  0  0.50        -4.1331   1.0000                                                             
     4  1  0.50        -4.0817   0.0000                                                             
     4  3  2.50        -1.3606   0.0000                                                             
   Description                                                                                      
     l       E           TYP  RCUT    TYP  RCUT                                                     
     2     -3.3744664     23  2.300                                                                 
     2     -4.7350490     23  2.300                                                                 
     0     -4.1331408     23  2.300                                                                 
     0      7.6656614     23  2.300                                                                 
     1     -2.7211652     23  2.300                                                                 
     1     20.4087390     23  2.300                                                                 
  local pseudopotential read in
  partial core-charges read in
  partial kinetic energy density read in
  atomic valenz-charges read in
  non local Contribution for L=           2  read in
    real space projection operators read in
  non local Contribution for L=           2  read in
    real space projection operators read in
  non local Contribution for L=           0  read in
    real space projection operators read in
  non local Contribution for L=           0  read in
    real space projection operators read in
  non local Contribution for L=           1  read in
    real space projection operators read in
  non local Contribution for L=           1  read in
    real space projection operators read in
    PAW grid and wavefunctions read in
 
   number of l-projection  operators is LMAX  =           6
   number of lm-projection operators is LMMAX =          18
 
 POTCAR:    PAW_PBE Ni 02Aug2007                  
   SHA256 =  0534bc51ca8003dfef23f56753fef9fdd3e22eac8d719fccacb59f3e6b7a69c7 Ni/POTCAR             
   COPYR  = (c) Copyright 02Aug2007 Georg Kresse                                                    
   COPYR  = This file is part of the software VASP. Any use, copying, and all other rights are regul
   COPYR  = If you do not have a valid VASP license, you may not use, copy or distribute this file. 
   VRHFIN =Ni:                                                                                      
   LEXCH  = PE                                                                                      
   EATOM  =  1077.6739 eV,   79.2068 Ry                                                             
                                                                                                    
   TITEL  = PAW_PBE Ni 02Aug2007                                                                    
   LULTRA =        F    use ultrasoft PP ?                                                          
   IUNSCR =        1    unscreen: 0-lin 1-nonlin 2-no                                               
   RPACOR =    2.000    partial core radius                                                         
   POMASS =   58.690; ZVAL   =   10.000    mass and valenz                                          
   RCORE  =    2.300    outmost cutoff radius                                                       
   RWIGS  =    2.430; RWIGS  =    1.286    wigner-seitz radius (au A)                               
   ENMAX  =  269.532; ENMIN  =  202.149 eV                                                          
   RCLOC  =    1.201    cutoff for local pot                                                        
   LCOR   =        T    correct aug charges                                                         
   LPAW   =        T    paw PP                                                                      
   EAUG   =  544.565                                                                                
   DEXC   =    0.000                                                                                
   RMAX   =    2.357    core radius for proj-oper                                                   
   RAUG   =    1.300    factor for augmentation sphere                                              
   RDEP   =    2.390    radius for radial grids                                                     
   RDEPT  =    1.838    core radius for aug-charge                                                  
                                                                                                    
   Atomic configuration                                                                             
    9 entries                                                                                       
     n  l   j            E        occ.                                                              
     1  0  0.50     -8206.4253   2.0000                                                             
     2  0  0.50      -976.1748   2.0000                                                             
     2  1  1.50      -839.0571   6.0000                                                             
     3  0  0.50      -105.9991   2.0000                                                             
     3  1  1.50       -66.4603   6.0000                                                             
     3  2  2.50        -4.6458   9.0000                                                             
     4  0  0.50        -4.4926   1.0000                                                             
     4  1  1.50        -4.0817   0.0000                                                             
     4  3  2.50        -1.3606   0.0000                                                             
   Description                                                                                      
     l       E           TYP  RCUT    TYP  RCUT                                                     
     2     -4.6457903     23  2.300                                                                 
     2     -6.0063729     23  2.300                                                                 
     0     -4.4925590     23  2.300                                                                 
     0      5.0102601     23  2.300                                                                 
     1     -2.7211652     23  2.300                                                                 
     1     16.5183231     23  2.300                                                                 
  local pseudopotential read in
  partial core-charges read in
  partial kinetic energy density read in
  atomic valenz-charges read in
  non local Contribution for L=           2  read in
    real space projection operators read in
  non local Contribution for L=           2  read in
    real space projection operators read in
  non local Contribution for L=           0  read in
    real space projection operators read in
  non local Contribution for L=           0  read in
    real space projection operators read in
  non local Contribution for L=           1  read in
    real space projection operators read in
  non local Contribution for L=           1  read in
    real space projection operators read in
    PAW grid and wavefunctions read in
 
   number of l-projection  operators is LMAX  =           6
   number of lm-projection operators is LMMAX =          18
 
 POTCAR:    PAW_PBE Ge 05Jan2001                  
   SHA256 =  7ff11deedcda39f1950abeda971a84a1f98a719a97bc9679a0df455c008734f8 Ge/POTCAR             
   COPYR  = (c) Copyright 05Jan2001 Georg Kresse                                                    
   COPYR  = This file is part of the software VASP. Any use, copying, and all other rights are regul
   COPYR  = If you do not have a valid VASP license, you may not use, copy or distribute this file. 
   VRHFIN =Ge: s2p2                                                                                 
   LEXCH  = PE                                                                                      
   EATOM  =   104.9960 eV,    7.7170 Ry                                                             
                                                                                                    
   TITEL  = PAW_PBE Ge 05Jan2001                                                                    
   LULTRA =        F    use ultrasoft PP ?                                                          
   IUNSCR =        1    unscreen: 0-lin 1-nonlin 2-no                                               
   RPACOR =    2.170    partial core radius                                                         
   POMASS =   72.610; ZVAL   =    4.000    mass and valenz                                          
   RCORE  =    2.300    outmost cutoff radius                                                       
   RWIGS  =    2.300; RWIGS  =    1.217    wigner-seitz radius (au A)                               
   ENMAX  =  173.807; ENMIN  =  130.355 eV                                                          
   ICORE  =        3    local potential                                                             
   LCOR   =        T    correct aug charges                                                         
   LPAW   =        T    paw PP                                                                      
   EAUG   =  385.843                                                                                
   DEXC   =    0.000                                                                                
   RMAX   =    2.342    core radius for proj-oper                                                   
   RAUG   =    1.300    factor for augmentation sphere                                              
   RDEP   =    2.318    radius for radial grids                                                     
   RDEPT  =    2.103    core radius for aug-charge                                                  
                                                                                                    
   Atomic configuration                                                                             
   10 entries                                                                                       
     n  l   j            E        occ.                                                              
     1  0  0.50    -10959.8463   2.0000                                                             
     2  0  0.50     -1371.6056   2.0000                                                             
     2  1  1.50     -1198.4791   6.0000                                                             
     3  0  0.50      -168.4733   2.0000                                                             
     3  1  1.50      -115.6019   6.0000                                                             
     3  2  2.50       -29.3106  10.0000                                                             
     4  0  0.50       -11.7309   2.0000                                                             
     4  1  0.50        -3.8952   2.0000                                                             
     4  2  1.50        -4.0817   0.0000                                                             
     4  3  2.50        -4.0817   0.0000                                                             
   Description                                                                                      
     l       E           TYP  RCUT    TYP  RCUT                                                     
     0    -11.7309493     23  2.300                                                                 
     0     -7.4578696     23  2.300                                                                 
     1     -3.8952261     23  2.300                                                                 
     1      6.1178114     23  2.300                                                                 
     2     -4.0817478     23  2.300                                                                 
     3     -1.3605826      7  2.300                                                                 
  local pseudopotential read in
  partial core-charges read in
  partial kinetic energy density read in
  atomic valenz-charges read in
  non local Contribution for L=           0  read in
    real space projection operators read in
  non local Contribution for L=           0  read in
    real space projection operators read in
  non local Contribution for L=           1  read in
    real space projection operators read in
  non local Contribution for L=           1  read in
    real space projection operators read in
  non local Contribution for L=           2  read in
    real space projection operators read in
    PAW grid and wavefunctions read in
 
   number of l-projection  operators is LMAX  =           5
   number of lm-projection operators is LMMAX =          13
 
 POTCAR:    PAW_PBE Fe 06Sep2000                  
   SHA256 =  cd5a22d9368cc8b5cc476bea79732366149640da08ac9009b0e1b7fc627eea28 Fe/POTCAR             
   COPYR  = (c) Copyright 06Sep2000 Georg Kresse                                                    
   COPYR  = This file is part of the software VASP. Any use, copying, and all other rights are regul
   COPYR  = If you do not have a valid VASP license, you may not use, copy or distribute this file. 
   VRHFIN =Fe:  d7 s1                                                                               
   LEXCH  = PE                                                                                      
   EATOM  =   594.3153 eV,   43.6809 Ry                                                             
                                                                                                    
   TITEL  = PAW_PBE Fe 06Sep2000                                                                    
   LULTRA =        F    use ultrasoft PP ?                                                          
   IUNSCR =        1    unscreen: 0-lin 1-nonlin 2-no                                               
   RPACOR =    2.000    partial core radius                                                         
   POMASS =   55.847; ZVAL   =    8.000    mass and valenz                                          
   RCORE  =    2.300    outmost cutoff radius                                                       
   RWIGS  =    2.460; RWIGS  =    1.302    wigner-seitz radius (au A)                               
   ENMAX  =  267.882; ENMIN  =  200.911 eV                                                          
   RCLOC  =    1.701    cutoff for local pot                                                        
   LCOR   =        T    correct aug charges                                                         
   LPAW   =        T    paw PP                                                                      
   EAUG   =  511.368                                                                                
   DEXC   =    0.000                                                                                
   RMAX   =    2.356    core radius for proj-oper                                                   
   RAUG   =    1.300    factor for augmentation sphere                                              
   RDEP   =    2.442    radius for radial grids                                                     
   RDEPT  =    1.890    core radius for aug-charge                                                  
                                                                                                    
   Atomic configuration                                                                             
    9 entries                                                                                       
     n  l   j            E        occ.                                                              
     1  0  0.50     -6993.8440   2.0000                                                             
     2  0  0.50      -814.6047   2.0000                                                             
     2  1  1.50      -693.3689   6.0000                                                             
     3  0  0.50       -89.4732   2.0000                                                             
     3  1  1.50       -55.6373   6.0000                                                             
     3  2  2.50        -3.8151   7.0000                                                             
     4  0  0.50        -4.2551   1.0000                                                             
     4  1  1.50        -3.4015   0.0000                                                             
     4  3  2.50        -1.3606   0.0000                                                             
   Description                                                                                      
     l       E           TYP  RCUT    TYP  RCUT                                                     
     2     -3.8151135     23  2.300                                                                 
     2     -5.1756961     23  2.300                                                                 
     0     -4.2550963     23  2.300                                                                 
     0      7.2035603     23  2.300                                                                 
     1     -2.7211652     23  2.300                                                                 
     1     18.4316424     23  2.300                                                                 
  local pseudopotential read in
  partial core-charges read in
  partial kinetic energy density read in
  atomic valenz-charges read in
  non local Contribution for L=           2  read in
    real space projection operators read in
  non local Contribution for L=           2  read in
    real space projection operators read in
  non local Contribution for L=           0  read in
    real space projection operators read in
  non local Contribution for L=           0  read in
    real space projection operators read in
  non local Contribution for L=           1  read in
    real space projection operators read in
  non local Contribution for L=           1  read in
    real space projection operators read in
    PAW grid and wavefunctions read in
 
   number of l-projection  operators is LMAX  =           6
   number of lm-projection operators is LMMAX =          18
 
 -----------------------------------------------------------------------------
|                                                                             |
|               ----> ADVICE to this user running VASP <----                  |
|                                                                             |
|     You have a (more or less) 'large supercell' and for larger cells it     |
|     might be more efficient to use real-space projection operators.         |
|     Therefore, try LREAL= Auto in the INCAR file.                           |
|     Mind: For very accurate calculation, you might also keep the            |
|     reciprocal projection scheme (i.e. LREAL=.FALSE.).                      |
|                                                                             |
 -----------------------------------------------------------------------------

  PAW_PBE Mn 06Sep2000                  :
 energy of atom  1       EATOM= -416.7541
 kinetic energy error for atom=    0.0033 (will be added to EATOM!!)
  PAW_PBE Ni 02Aug2007                  :
 energy of atom  2       EATOM=-1077.6739
 kinetic energy error for atom=    0.0038 (will be added to EATOM!!)
  PAW_PBE Ge 05Jan2001                  :
 energy of atom  3       EATOM= -104.9960
 kinetic energy error for atom=    0.0003 (will be added to EATOM!!)
  PAW_PBE Fe 06Sep2000                  :
 energy of atom  4       EATOM= -594.3153
 kinetic energy error for atom=    0.0034 (will be added to EATOM!!)
 
 
 POSCAR: MnNiGe_orth
  positions in direct lattice
  velocities in cartesian coordinates
 exchange correlation table for  LEXCH =        8
   RHO(1)=    0.500       N(1)  =     2000
   RHO(2)=  100.500       N(2)  =     4000
 


--------------------------------------------------------------------------------------------------------


 ion  position               nearest neighbor table
   1  0.242  0.250  0.178-  41 2.45  45 2.45  32 2.50  44 2.68  40 2.68  16 2.71  18 2.72  29 2.78
                            25 2.78  24 2.85  28 2.85  14 3.08  10 3.08   7 3.13   3 3.13
   2  0.242  0.750  0.178-  41 2.45  45 2.45  33 2.50  44 2.68  40 2.68  17 2.71  19 2.72  29 2.78
                            25 2.78  24 2.85  28 2.85  14 3.08  10 3.08   8 3.13   4 3.13
   3  0.492  0.250  0.322-  42 2.45  46 2.45  34 2.50  45 2.68  41 2.68  18 2.71  20 2.72  30 2.78
                            26 2.78  25 2.85  29 2.85  11 3.08  48 3.08   1 3.13   5 3.13
   4  0.492  0.750  0.322-  42 2.45  46 2.45  35 2.50  45 2.68  41 2.68  19 2.71  21 2.72  30 2.78
                            26 2.78  25 2.85  29 2.85  11 3.08  48 3.08   2 3.13   6 3.13
   5  0.742  0.250  0.178-  43 2.45  47 2.45  36 2.50  46 2.68  42 2.68  20 2.71  22 2.72  31 2.78
                            27 2.78  26 2.85  30 2.85  15 3.08  12 3.08   7 3.13   3 3.13
   6  0.742  0.750  0.178-  43 2.45  47 2.45  37 2.50  46 2.68  42 2.68  21 2.71  23 2.72  31 2.78
                            27 2.78  26 2.85  30 2.85  15 3.08  12 3.08   8 3.13   4 3.13
   7  0.992  0.250  0.322-  40 2.45  44 2.45  38 2.50  43 2.68  47 2.68  22 2.71  16 2.72  28 2.78
                            24 2.78  31 2.85  27 2.85  13 3.08   9 3.08   1 3.13   5 3.13
   8  0.992  0.750  0.322-  40 2.45  44 2.45  39 2.50  43 2.68  47 2.68  23 2.71  17 2.72  28 2.78
                            24 2.78  31 2.85  27 2.85  13 3.08   9 3.08   2 3.13   6 3.13
   9  0.008  0.000  0.678-  38 2.45  39 2.45  40 2.50  33 2.68  32 2.68  24 2.71  27 2.72  23 2.78
                            22 2.78  17 2.85  16 2.85   8 3.08   7 3.08  10 3.13  12 3.13
  10  0.258  0.000  0.822-  32 2.45  33 2.45  41 2.50  35 2.68  34 2.68  25 2.71  24 2.72  17 2.78
                            16 2.78  19 2.85  18 2.85   2 3.08   1 3.08  11 3.13   9 3.13
  11  0.508  0.000  0.678-  34 2.45  35 2.45  42 2.50  37 2.68  36 2.68  26 2.71  25 2.72  19 2.78
                            18 2.78  21 2.85  20 2.85   4 3.08   3 3.08  10 3.13  12 3.13
  12  0.758  0.000  0.822-  36 2.45  37 2.45  43 2.50  39 2.68  38 2.68  27 2.71  26 2.72  21 2.78
                            20 2.78  23 2.85  22 2.85   6 3.08   5 3.08  11 3.13   9 3.13
  13  0.008  0.500  0.678-  38 2.45  39 2.45  44 2.50  33 2.68  32 2.68  28 2.71  31 2.72  23 2.78
                            22 2.78  17 2.85  16 2.85   8 3.08   7 3.08  14 3.13  15 3.13
  14  0.258  0.500  0.822-  32 2.45  33 2.45  45 2.50  35 2.68  34 2.68  29 2.71  28 2.72  17 2.78
                            16 2.78  19 2.85  18 2.85   2 3.08   1 3.08  48 3.13  13 3.13
  15  0.758  0.500  0.822-  36 2.45  37 2.45  47 2.50  39 2.68  38 2.68  31 2.71  30 2.72  21 2.78
                            20 2.78  23 2.85  22 2.85   6 3.08   5 3.08  48 3.13  13 3.13
  16  0.177  0.250  0.553-  40 2.28  44 2.28  32 2.34  34 2.40  25 2.63  29 2.63   1 2.71   7 2.72
                            10 2.78  14 2.78  13 2.85   9 2.85
  17  0.177  0.750  0.553-  40 2.28  44 2.28  33 2.34  35 2.40  25 2.63  29 2.63   2 2.71   8 2.72
                            10 2.78  14 2.78  13 2.85   9 2.85
  18  0.427  0.250  0.947-  41 2.28  45 2.28  34 2.34  36 2.40  26 2.63  30 2.63   3 2.71   1 2.72
                            11 2.78  48 2.78  14 2.85  10 2.85
  19  0.427  0.750  0.947-  41 2.28  45 2.28  35 2.34  37 2.40  26 2.63  30 2.63   4 2.71   2 2.72
                            11 2.78  48 2.78  14 2.85  10 2.85
  20  0.677  0.250  0.553-  42 2.28  46 2.28  36 2.34  38 2.40  27 2.63  31 2.63   5 2.71   3 2.72
                            12 2.78  15 2.78  11 2.85  48 2.85
  21  0.677  0.750  0.553-  42 2.28  46 2.28  37 2.34  39 2.40  27 2.63  31 2.63   6 2.71   4 2.72
                            12 2.78  15 2.78  11 2.85  48 2.85
  22  0.927  0.250  0.947-  43 2.28  47 2.28  38 2.34  32 2.40  24 2.63  28 2.63   7 2.71   5 2.72
                             9 2.78  13 2.78  12 2.85  15 2.85
  23  0.927  0.750  0.947-  43 2.28  47 2.28  39 2.34  33 2.40  24 2.63  28 2.63   8 2.71   6 2.72
                             9 2.78  13 2.78  12 2.85  15 2.85
  24  0.073  0.000  0.053-  32 2.28  33 2.28  40 2.34  43 2.40  22 2.63  23 2.63   9 2.71  10 2.72
                             7 2.78   8 2.78   1 2.85   2 2.85
  25  0.323  0.000  0.447-  34 2.28  35 2.28  41 2.34  40 2.40  16 2.63  17 2.63  10 2.71  11 2.72
                             1 2.78   2 2.78   3 2.85   4 2.85
  26  0.573  0.000  0.053-  36 2.28  37 2.28  42 2.34  41 2.40  18 2.63  19 2.63  11 2.71  12 2.72
                             3 2.78   4 2.78   5 2.85   6 2.85
  27  0.823  0.000  0.447-  38 2.28  39 2.28  43 2.34  42 2.40  20 2.63  21 2.63  12 2.71   9 2.72
                             5 2.78   6 2.78   7 2.85   8 2.85
  28  0.073  0.500  0.053-  32 2.28  33 2.28  44 2.34  47 2.40  22 2.63  23 2.63  13 2.71  14 2.72
                             7 2.78   8 2.78   1 2.85   2 2.85
  29  0.323  0.500  0.447-  34 2.28  35 2.28  45 2.34  44 2.40  16 2.63  17 2.63  14 2.71  48 2.72
                             1 2.78   2 2.78   3 2.85   4 2.85
  30  0.573  0.500  0.053-  36 2.28  37 2.28  46 2.34  45 2.40  18 2.63  19 2.63  48 2.71  15 2.72
                             3 2.78   4 2.78   5 2.85   6 2.85
  31  0.823  0.500  0.447-  38 2.28  39 2.28  47 2.34  46 2.40  20 2.63  21 2.63  15 2.71  13 2.72
                             5 2.78   6 2.78   7 2.85   8 2.85
  32  0.125  0.250  0.878-  24 2.28  28 2.28  16 2.34  22 2.40  10 2.45  14 2.45   1 2.50  13 2.68
                             9 2.68
  33  0.125  0.750  0.878-  24 2.28  28 2.28  17 2.34  23 2.40  10 2.45  14 2.45   2 2.50  13 2.68
                             9 2.68
  34  0.375  0.250  0.622-  25 2.28  29 2.28  18 2.34  16 2.40  11 2.45  48 2.45   3 2.50  14 2.68
                            10 2.68
  35  0.375  0.750  0.622-  25 2.28  29 2.28  19 2.34  17 2.40  11 2.45  48 2.45   4 2.50  14 2.68
                            10 2.68
  36  0.625  0.250  0.878-  26 2.28  30 2.28  20 2.34  18 2.40  12 2.45  15 2.45   5 2.50  11 2.68
                            48 2.68
  37  0.625  0.750  0.878-  26 2.28  30 2.28  21 2.34  19 2.40  12 2.45  15 2.45   6 2.50  11 2.68
                            48 2.68
  38  0.875  0.250  0.622-  27 2.28  31 2.28  22 2.34  20 2.40   9 2.45  13 2.45   7 2.50  12 2.68
                            15 2.68
  39  0.875  0.750  0.622-  27 2.28  31 2.28  23 2.34  21 2.40   9 2.45  13 2.45   8 2.50  12 2.68
                            15 2.68
  40  0.125  0.000  0.378-  16 2.28  17 2.28  24 2.34  25 2.40   7 2.45   8 2.45   9 2.50   2 2.68
                             1 2.68
  41  0.375  0.000  0.122-  18 2.28  19 2.28  25 2.34  26 2.40   1 2.45   2 2.45  10 2.50   4 2.68
                             3 2.68
  42  0.625  0.000  0.378-  20 2.28  21 2.28  26 2.34  27 2.40   3 2.45   4 2.45  11 2.50   6 2.68
                             5 2.68
  43  0.875  0.000  0.122-  22 2.28  23 2.28  27 2.34  24 2.40   5 2.45   6 2.45  12 2.50   8 2.68
                             7 2.68
  44  0.125  0.500  0.378-  16 2.28  17 2.28  28 2.34  29 2.40   7 2.45   8 2.45  13 2.50   2 2.68
                             1 2.68
  45  0.375  0.500  0.122-  18 2.28  19 2.28  29 2.34  30 2.40   1 2.45   2 2.45  14 2.50   4 2.68
                             3 2.68
  46  0.625  0.500  0.378-  20 2.28  21 2.28  30 2.34  31 2.40   3 2.45   4 2.45  48 2.50   6 2.68
                             5 2.68
  47  0.875  0.500  0.122-  22 2.28  23 2.28  31 2.34  28 2.40   5 2.45   6 2.45  15 2.50   8 2.68
                             7 2.68
  48  0.508  0.500  0.678-  34 2.45  35 2.45  46 2.50  37 2.68  36 2.68  30 2.71  29 2.72  19 2.78
                            18 2.78  21 2.85  20 2.85   4 3.08   3 3.08  14 3.13  15 3.13
 
  LATTYP: Found a simple orthorhombic cell.
 ALAT       =     6.9389722303
 B/A-ratio  =     1.0555008508
 C/A-ratio  =     1.7085169161
  
  Lattice vectors:
  
 A1 = (   0.0000000000,   0.0000000000,  -6.9389722303)
 A2 = (   0.0000000000,  -7.3240910927,   0.0000000000)
 A3 = ( -11.8553514354,   0.0000000000,   0.0000000000)


Analysis of symmetry for initial positions (statically):
=====================================================================
 Subroutine PRICEL returns:
 Original cell was already a primitive cell.
 

 Routine SETGRP: Setting up the symmetry group for a 
 simple orthorhombic supercell.


 Subroutine GETGRP returns: Found  2 space group operations
 (whereof  2 operations were pure point group operations)
 out of a pool of  8 trial point group operations.


The static configuration has the point symmetry C_1h.


Analysis of symmetry for dynamics (positions and initial velocities):
=====================================================================
 Subroutine PRICEL returns:
 Original cell was already a primitive cell.
 

 Routine SETGRP: Setting up the symmetry group for a 
 simple orthorhombic supercell.


 Subroutine GETGRP returns: Found  2 space group operations
 (whereof  2 operations were pure point group operations)
 out of a pool of  8 trial point group operations.


The dynamic configuration has the point symmetry C_1h.


Analysis of structural, dynamic, and magnetic symmetry:
=====================================================================
 Subroutine PRICEL returns:
 Original cell was already a primitive cell.
 

 Routine SETGRP: Setting up the symmetry group for a 
 simple orthorhombic supercell.


 Subroutine GETGRP returns: Found  2 space group operations
 (whereof  2 operations were pure point group operations)
 out of a pool of  8 trial point group operations.


The magnetic configuration has the point symmetry C_1h.


 Subroutine INISYM returns: Found  2 space group operations
 (whereof  2 operations are pure point group operations),
 and found     1 'primitive' translations


----------------------------------------------------------------------------------------

                                     Primitive cell                                     

  volume of cell :     602.5087

  direct lattice vectors                    reciprocal lattice vectors
    11.855351435  0.000000000  0.000000000     0.084350093  0.000000000  0.000000000
     0.000000000  7.324091093  0.000000000     0.000000000  0.136535713  0.000000000
     0.000000000  0.000000000  6.938972230     0.000000000  0.000000000  0.144113561

  length of vectors
    11.855351435  7.324091093  6.938972230     0.084350093  0.136535713  0.144113561

  position of ions in fractional coordinates (direct lattice)
     0.241899997  0.250000000  0.178299993
     0.241899997  0.750000000  0.178299993
     0.491899997  0.250000000  0.321700007
     0.491899997  0.750000000  0.321700007
     0.741900027  0.250000000  0.178299993
     0.741900027  0.750000000  0.178299993
     0.991900027  0.250000000  0.321700007
     0.991900027  0.750000000  0.321700007
     0.008100000  0.000000000  0.678300023
     0.258100003  0.000000000  0.821699977
     0.508099973  0.000000000  0.678300023
     0.758099973  0.000000000  0.821699977
     0.008100000  0.500000000  0.678300023
     0.258100003  0.500000000  0.821699977
     0.758099973  0.500000000  0.821699977
     0.176699996  0.250000000  0.553300023
     0.176699996  0.750000000  0.553300023
     0.426699996  0.250000000  0.946699977
     0.426699996  0.750000000  0.946699977
     0.676699996  0.250000000  0.553300023
     0.676699996  0.750000000  0.553300023
     0.926699996  0.250000000  0.946699977
     0.926699996  0.750000000  0.946699977
     0.073299997  0.000000000  0.053300001
     0.323300004  0.000000000  0.446700007
     0.573300004  0.000000000  0.053300001
     0.823300004  0.000000000  0.446700007
     0.073299997  0.500000000  0.053300001
     0.323300004  0.500000000  0.446700007
     0.573300004  0.500000000  0.053300001
     0.823300004  0.500000000  0.446700007
     0.125249997  0.250000000  0.878300011
     0.125249997  0.750000000  0.878300011
     0.375250012  0.250000000  0.621699989
     0.375250012  0.750000000  0.621699989
     0.625249982  0.250000000  0.878300011
     0.625249982  0.750000000  0.878300011
     0.875249982  0.250000000  0.621699989
     0.875249982  0.750000000  0.621699989
     0.124750003  0.000000000  0.378300011
     0.374749988  0.000000000  0.121699996
     0.624750018  0.000000000  0.378300011
     0.874750018  0.000000000  0.121699996
     0.124750003  0.500000000  0.378300011
     0.374749988  0.500000000  0.121699996
     0.624750018  0.500000000  0.378300011
     0.874750018  0.500000000  0.121699996
     0.508099973  0.500000000  0.678300023

  ion indices of the primitive-cell ions
   primitive index   ion index
                 1           1
                 2           2
                 3           3
                 4           4
                 5           5
                 6           6
                 7           7
                 8           8
                 9           9
                10          10
                11          11
                12          12
                13          13
                14          14
                15          15
                16          16
                17          17
                18          18
                19          19
                20          20
                21          21
                22          22
                23          23
                24          24
                25          25
                26          26
                27          27
                28          28
                29          29
                30          30
                31          31
                32          32
                33          33
                34          34
                35          35
                36          36
                37          37
                38          38
                39          39
                40          40
                41          41
                42          42
                43          43
                44          44
                45          45
                46          46
                47          47
                48          48

----------------------------------------------------------------------------------------

 
 
 KPOINTS: Auto                                    

Automatic generation of k-mesh.
Space group operators:
 irot       det(A)        alpha          n_x          n_y          n_z        tau_x        tau_y        tau_z
    1     1.000000     0.000000     1.000000     0.000000     0.000000     0.000000     0.000000     0.000000
    2    -1.000000   180.000000     0.000000     1.000000     0.000000     0.000000     0.000000     0.000000
 
 Subroutine IBZKPT returns following result:
 ===========================================
 
 Found     60 irreducible k-points:
 
 Following reciprocal coordinates:
            Coordinates               Weight
  0.000000  0.000000  0.000000      1.000000
  0.250000  0.000000  0.000000      2.000000
  0.500000  0.000000  0.000000      1.000000
  0.000000  0.142857  0.000000      2.000000
  0.250000  0.142857  0.000000      4.000000
  0.500000  0.142857  0.000000      2.000000
  0.000000  0.285714  0.000000      2.000000
  0.250000  0.285714  0.000000      4.000000
  0.500000  0.285714  0.000000      2.000000
  0.000000  0.428571  0.000000      2.000000
  0.250000  0.428571  0.000000      4.000000
  0.500000  0.428571  0.000000      2.000000
  0.000000  0.000000  0.142857      2.000000
  0.250000  0.000000  0.142857      2.000000
 -0.250000  0.000000  0.142857      2.000000
  0.500000  0.000000  0.142857      2.000000
  0.000000  0.142857  0.142857      4.000000
  0.250000  0.142857  0.142857      4.000000
 -0.250000 -0.142857  0.142857      4.000000
  0.500000  0.142857  0.142857      4.000000
  0.000000  0.285714  0.142857      4.000000
  0.250000  0.285714  0.142857      4.000000
 -0.250000 -0.285714  0.142857      4.000000
  0.500000  0.285714  0.142857      4.000000
  0.000000  0.428571  0.142857      4.000000
  0.250000  0.428571  0.142857      4.000000
 -0.250000 -0.428571  0.142857      4.000000
  0.500000  0.428571  0.142857      4.000000
  0.000000  0.000000  0.285714      2.000000
  0.250000  0.000000  0.285714      2.000000
 -0.250000  0.000000  0.285714      2.000000
  0.500000  0.000000  0.285714      2.000000
  0.000000  0.142857  0.285714      4.000000
  0.250000  0.142857  0.285714      4.000000
 -0.250000 -0.142857  0.285714      4.000000
  0.500000  0.142857  0.285714      4.000000
  0.000000  0.285714  0.285714      4.000000
  0.250000  0.285714  0.285714      4.000000
 -0.250000 -0.285714  0.285714      4.000000
  0.500000  0.285714  0.285714      4.000000
  0.000000  0.428571  0.285714      4.000000
  0.250000  0.428571  0.285714      4.000000
 -0.250000 -0.428571  0.285714      4.000000
  0.500000  0.428571  0.285714      4.000000
  0.000000  0.000000  0.428571      2.000000
  0.250000  0.000000  0.428571      2.000000
 -0.250000  0.000000  0.428571      2.000000
  0.500000  0.000000  0.428571      2.000000
  0.000000  0.142857  0.428571      4.000000
  0.250000  0.142857  0.428571      4.000000
 -0.250000 -0.142857  0.428571      4.000000
  0.500000  0.142857  0.428571      4.000000
  0.000000  0.285714  0.428571      4.000000
  0.250000  0.285714  0.428571      4.000000
 -0.250000 -0.285714  0.428571      4.000000
  0.500000  0.285714  0.428571      4.000000
  0.000000  0.428571  0.428571      4.000000
  0.250000  0.428571  0.428571      4.000000
 -0.250000 -0.428571  0.428571      4.000000
  0.500000  0.428571  0.428571      4.000000
 
 Following cartesian coordinates:
            Coordinates               Weight
  0.000000  0.000000  0.000000      1.000000
  0.020771  0.000000  0.000000      2.000000
  0.041542  0.000000  0.000000      1.000000
  0.000000  0.019213  0.000000      2.000000
  0.020771  0.019213  0.000000      4.000000
  0.041542  0.019213  0.000000      2.000000
  0.000000  0.038425  0.000000      2.000000
  0.020771  0.038425  0.000000      4.000000
  0.041542  0.038425  0.000000      2.000000
  0.000000  0.057638  0.000000      2.000000
  0.020771  0.057638  0.000000      4.000000
  0.041542  0.057638  0.000000      2.000000
  0.000000  0.000000  0.020279      2.000000
  0.020771  0.000000  0.020279      2.000000
 -0.020771  0.000000  0.020279      2.000000
  0.041542  0.000000  0.020279      2.000000
  0.000000  0.019213  0.020279      4.000000
  0.020771  0.019213  0.020279      4.000000
 -0.020771 -0.019213  0.020279      4.000000
  0.041542  0.019213  0.020279      4.000000
  0.000000  0.038425  0.020279      4.000000
  0.020771  0.038425  0.020279      4.000000
 -0.020771 -0.038425  0.020279      4.000000
  0.041542  0.038425  0.020279      4.000000
  0.000000  0.057638  0.020279      4.000000
  0.020771  0.057638  0.020279      4.000000
 -0.020771 -0.057638  0.020279      4.000000
  0.041542  0.057638  0.020279      4.000000
  0.000000  0.000000  0.040558      2.000000
  0.020771  0.000000  0.040558      2.000000
 -0.020771  0.000000  0.040558      2.000000
  0.041542  0.000000  0.040558      2.000000
  0.000000  0.019213  0.040558      4.000000
  0.020771  0.019213  0.040558      4.000000
 -0.020771 -0.019213  0.040558      4.000000
  0.041542  0.019213  0.040558      4.000000
  0.000000  0.038425  0.040558      4.000000
  0.020771  0.038425  0.040558      4.000000
 -0.020771 -0.038425  0.040558      4.000000
  0.041542  0.038425  0.040558      4.000000
  0.000000  0.057638  0.040558      4.000000
  0.020771  0.057638  0.040558      4.000000
 -0.020771 -0.057638  0.040558      4.000000
  0.041542  0.057638  0.040558      4.000000
  0.000000  0.000000  0.060837      2.000000
  0.020771  0.000000  0.060837      2.000000
 -0.020771  0.000000  0.060837      2.000000
  0.041542  0.000000  0.060837      2.000000
  0.000000  0.019213  0.060837      4.000000
  0.020771  0.019213  0.060837      4.000000
 -0.020771 -0.019213  0.060837      4.000000
  0.041542  0.019213  0.060837      4.000000
  0.000000  0.038425  0.060837      4.000000
  0.020771  0.038425  0.060837      4.000000
 -0.020771 -0.038425  0.060837      4.000000
  0.041542  0.038425  0.060837      4.000000
  0.000000  0.057638  0.060837      4.000000
  0.020771  0.057638  0.060837      4.000000
 -0.020771 -0.057638  0.060837      4.000000
  0.041542  0.057638  0.060837      4.000000
 


--------------------------------------------------------------------------------------------------------




 Dimension of arrays:
   k-points           NKPTS =     60   k-points in BZ     NKDIM =     60   number of bands    NBANDS=    360
   number of dos      NEDOS =    301   number of ions     NIONS =     48
   non local maximal  LDIM  =      6   non local SUM 2l+1 LMDIM =     18
   total plane-waves  NPLWV = 217728
   max r-space proj   IRMAX =      1   max aug-charges    IRDMAX=  19838
   dimension x,y,z NGX =    84 NGY =   54 NGZ =   48
   dimension x,y,z NGXF=   168 NGYF=  108 NGZF=   96
   support grid    NGXF=   168 NGYF=  108 NGZF=   96
   ions per type =              15  16  16   1
   NGX,Y,Z   is equivalent  to a cutoff of  11.78, 12.26, 11.50 a.u.
   NGXF,Y,Z  is equivalent  to a cutoff of  23.56, 24.51, 23.00 a.u.

 SYSTEM =  MnFeNiGe_mag_orth-scf                   
 POSCAR =  MnNiGe_orth                             

 Startparameter for this run:
   NWRITE =      2    write-flag & timer
   PREC   = accura    normal or accurate (medium, high low for compatibility)
   ISTART =      0    job   : 0-new  1-cont  2-samecut
   ICHARG =      2    charge: 1-file 2-atom 10-const
   ISPIN  =      2    spin polarized calculation?
   LNONCOLLINEAR =      F non collinear calculations
   LSORBIT =      F    spin-orbit coupling
   INIWAV =      1    electr: 0-lowe 1-rand  2-diag
   LASPH  =      F    aspherical Exc in radial PAW
   METAGGA=      F    non-selfconsistent MetaGGA calc.

 Electronic Relaxation 1
   ENCUT  =  450.0 eV  33.07 Ry    5.75 a.u.  20.51 12.67 12.00*2*pi/ulx,y,z
   ENINI  =  450.0     initial cutoff
   ENAUG  =  544.6 eV  augmentation charge cutoff
   NELM   =     60;   NELMIN=  5; NELMDL= -5     # of ELM steps 
   EDIFF  = 0.1E-05   stopping-criterion for ELM
   LREAL  =      F    real-space projection
   NLSPLINE    = F    spline interpolate recip. space projectors
   LCOMPAT=      F    compatible to vasp.4.4
   GGA_COMPAT  = T    GGA compatible to vasp.4.4-vasp.4.6
   LMAXPAW     = -100 max onsite density
   LMAXMIX     =    2 max onsite mixed and CHGCAR
   VOSKOWN=      0    Vosko Wilk Nusair interpolation
   ROPT   =    0.00000   0.00000   0.00000   0.00000
 Ionic relaxation
   EDIFFG = 0.1E-04   stopping-criterion for IOM
   NSW    =      0    number of steps for IOM
   NBLOCK =      1;   KBLOCK =      1    inner block; outer block 
   IBRION =     -1    ionic relax: 0-MD 1-quasi-New 2-CG
   NFREE  =      0    steps in history (QN), initial steepest desc. (CG)
   ISIF   =      6    stress and relaxation
   IWAVPR =     10    prediction:  0-non 1-charg 2-wave 3-comb
   ISYM   =      2    0-nonsym 1-usesym 2-fastsym
   LCORR  =      T    Harris-Foulkes like correction to forces

   POTIM  = 0.5000    time-step for ionic-motion
   TEIN   =    0.0    initial temperature
   TEBEG  =    0.0;   TEEND  =   0.0 temperature during run
   SMASS  =  -3.00    Nose mass-parameter (am)
   estimated Nose-frequenzy (Omega)   =  0.10E-29 period in steps = 0.13E+47 mass=  -0.321E-26a.u.
   SCALEE = 1.0000    scale energy and forces
   NPACO  =    256;   APACO  = 16.0  distance and # of slots for P.C.
   PSTRESS=    0.0 pullay stress

  Mass of Ions in am
   POMASS =  54.94 58.69 72.61 55.85
  Ionic Valenz
   ZVAL   =   7.00 10.00  4.00  8.00
  Atomic Wigner-Seitz radii
   RWIGS  =  -1.00 -1.00 -1.00 -1.00
  virtual crystal weights 
   VCA    =   1.00  1.00  1.00  1.00
   NELECT =     337.0000    total number of electrons
   NUPDOWN=      -1.0000    fix difference up-down

 DOS related values:
   EMIN   =  10.00;   EMAX   =-10.00  energy-range for DOS
   EFERMI =   0.00
   ISMEAR =     1;   SIGMA  =   0.20  broadening in eV -4-tet -1-fermi 0-gaus

 Electronic relaxation 2 (details)
   IALGO  =     38    algorithm
   LDIAG  =      T    sub-space diagonalisation (order eigenvalues)
   LSUBROT=      F    optimize rotation matrix (better conditioning)
   TURBO    =      0    0=normal 1=particle mesh
   IRESTART =      0    0=no restart 2=restart with 2 vectors
   NREBOOT  =      0    no. of reboots
   NMIN     =      0    reboot dimension
   EREF     =   0.00    reference energy to select bands
   IMIX   =      4    mixing-type and parameters
     AMIX     =   0.40;   BMIX     =  1.00
     AMIX_MAG =   1.60;   BMIX_MAG =  1.00
     AMIN     =   0.10
     WC   =   100.;   INIMIX=   1;  MIXPRE=   1;  MAXMIX= -45

 Intra band minimization:
   WEIMIN = 0.0000     energy-eigenvalue tresh-hold
   EBREAK =  0.69E-09  absolut break condition
   DEPER  =   0.30     relativ break condition  

   TIME   =   0.40     timestep for ELM

  volume/ion in A,a.u.               =      12.55        84.71
  Fermi-wavevector in a.u.,A,eV,Ry     =   1.348850  2.548957 24.754394  1.819397
  Thomas-Fermi vector in A             =   2.476485
 
 Write flags
   LWAVE        =      F    write WAVECAR
   LDOWNSAMPLE  =      F    k-point downsampling of WAVECAR
   LCHARG       =      T    write CHGCAR
   LVTOT        =      F    write LOCPOT, total local potential
   LVHAR        =      F    write LOCPOT, Hartree potential only
   LELF         =      F    write electronic localiz. function (ELF)
   LORBIT       =     11    0 simple, 1 ext, 2 COOP (PROOUT), +10 PAW based schemes


 Dipole corrections
   LMONO  =      F    monopole corrections only (constant potential shift)
   LDIPOL =      F    correct potential (dipole corrections)
   IDIPOL =      0    1-x, 2-y, 3-z, 4-all directions 
   EPSILON=  1.0000000 bulk dielectric constant

 Exchange correlation treatment:
   GGA     =    --    GGA type
   LEXCH   =     8    internal setting for exchange type
   VOSKOWN=      0    Vosko Wilk Nusair interpolation
   LHFCALC =     F    Hartree Fock is set to
   LHFONE  =     F    Hartree Fock one center treatment
   AEXX    =    0.0000 exact exchange contribution

 Linear response parameters
   LEPSILON=     F    determine dielectric tensor
   LRPA    =     F    only Hartree local field effects (RPA)
   LNABLA  =     F    use nabla operator in PAW spheres
   LVEL    =     F    velocity operator in full k-point grid
   LINTERFAST=   F  fast interpolation
   KINTER  =     0    interpolate to denser k-point grid
   CSHIFT  =0.1000    complex shift for real part using Kramers Kronig
   OMEGAMAX=  -1.0    maximum frequency
   DEG_THRESHOLD= 0.2000000E-02 threshold for treating states as degnerate
   RTIME   =   -0.100 relaxation time in fs
  (WPLASMAI=    0.000 imaginary part of plasma frequency in eV, 0.658/RTIME)
   DFIELD  = 0.0000000 0.0000000 0.0000000 field for delta impulse in time
 
 Orbital magnetization related:
   ORBITALMAG=     F  switch on orbital magnetization
   LCHIMAG   =     F  perturbation theory with respect to B field
   DQ        =  0.001000  dq finite difference perturbation B field
   LLRAUG    =     F  two centre corrections for induced B field



--------------------------------------------------------------------------------------------------------


 Static calculation
 charge density and potential will be updated during run
 spin polarized calculation
 Variant of blocked Davidson
 Davidson routine will perform the subspace rotation
 perform sub-space diagonalisation
    after iterative eigenvector-optimisation
 modified Broyden-mixing scheme, WC =      100.0
 initial mixing is a Kerker type mixing with AMIX =  0.4000 and BMIX =      1.0000
 Hartree-type preconditioning will be used
 using additional bands          191
 reciprocal scheme for non local part
 use partial core corrections
 calculate Harris-corrections to forces 
   (improved forces if not selfconsistent)
 use gradient corrections 
 use of overlap-Matrix (Vanderbilt PP)
 Methfessel and Paxton  Order N= 1 SIGMA  =   0.20


--------------------------------------------------------------------------------------------------------


  energy-cutoff  :      450.00
  volume of cell :      602.51
      direct lattice vectors                 reciprocal lattice vectors
    11.855351435  0.000000000  0.000000000     0.084350093  0.000000000  0.000000000
     0.000000000  7.324091093  0.000000000     0.000000000  0.136535713  0.000000000
     0.000000000  0.000000000  6.938972230     0.000000000  0.000000000  0.144113561

  length of vectors
    11.855351435  7.324091093  6.938972230     0.084350093  0.136535713  0.144113561


 
 k-points in units of 2pi/SCALE and weight: Auto                                    
   0.00000000  0.00000000  0.00000000       0.005
   0.02077121  0.00000000  0.00000000       0.010
   0.04154242  0.00000000  0.00000000       0.005
   0.00000000  0.01921253  0.00000000       0.010
   0.02077121  0.01921253  0.00000000       0.020
   0.04154242  0.01921253  0.00000000       0.010
   0.00000000  0.03842505  0.00000000       0.010
   0.02077121  0.03842505  0.00000000       0.020
   0.04154242  0.03842505  0.00000000       0.010
   0.00000000  0.05763758  0.00000000       0.010
   0.02077121  0.05763758  0.00000000       0.020
   0.04154242  0.05763758  0.00000000       0.010
   0.00000000  0.00000000  0.02027884       0.010
   0.02077121  0.00000000  0.02027884       0.010
  -0.02077121  0.00000000  0.02027884       0.010
   0.04154242  0.00000000  0.02027884       0.010
   0.00000000  0.01921253  0.02027884       0.020
   0.02077121  0.01921253  0.02027884       0.020
  -0.02077121 -0.01921253  0.02027884       0.020
   0.04154242  0.01921253  0.02027884       0.020
   0.00000000  0.03842505  0.02027884       0.020
   0.02077121  0.03842505  0.02027884       0.020
  -0.02077121 -0.03842505  0.02027884       0.020
   0.04154242  0.03842505  0.02027884       0.020
   0.00000000  0.05763758  0.02027884       0.020
   0.02077121  0.05763758  0.02027884       0.020
  -0.02077121 -0.05763758  0.02027884       0.020
   0.04154242  0.05763758  0.02027884       0.020
   0.00000000  0.00000000  0.04055767       0.010
   0.02077121  0.00000000  0.04055767       0.010
  -0.02077121  0.00000000  0.04055767       0.010
   0.04154242  0.00000000  0.04055767       0.010
   0.00000000  0.01921253  0.04055767       0.020
   0.02077121  0.01921253  0.04055767       0.020
  -0.02077121 -0.01921253  0.04055767       0.020
   0.04154242  0.01921253  0.04055767       0.020
   0.00000000  0.03842505  0.04055767       0.020
   0.02077121  0.03842505  0.04055767       0.020
  -0.02077121 -0.03842505  0.04055767       0.020
   0.04154242  0.03842505  0.04055767       0.020
   0.00000000  0.05763758  0.04055767       0.020
   0.02077121  0.05763758  0.04055767       0.020
  -0.02077121 -0.05763758  0.04055767       0.020
   0.04154242  0.05763758  0.04055767       0.020
   0.00000000  0.00000000  0.06083651       0.010
   0.02077121  0.00000000  0.06083651       0.010
  -0.02077121  0.00000000  0.06083651       0.010
   0.04154242  0.00000000  0.06083651       0.010
   0.00000000  0.01921253  0.06083651       0.020
   0.02077121  0.01921253  0.06083651       0.020
  -0.02077121 -0.01921253  0.06083651       0.020
   0.04154242  0.01921253  0.06083651       0.020
   0.00000000  0.03842505  0.06083651       0.020
   0.02077121  0.03842505  0.06083651       0.020
  -0.02077121 -0.03842505  0.06083651       0.020
   0.04154242  0.03842505  0.06083651       0.020
   0.00000000  0.05763758  0.06083651       0.020
   0.02077121  0.05763758  0.06083651       0.020
  -0.02077121 -0.05763758  0.06083651       0.020
   0.04154242  0.05763758  0.06083651       0.020
 
 k-points in reciprocal lattice and weights: Auto                                    
   0.00000000  0.00000000  0.00000000       0.005
   0.25000000  0.00000000  0.00000000       0.010
   0.50000000  0.00000000  0.00000000       0.005
   0.00000000  0.14285714  0.00000000       0.010
   0.25000000  0.14285714  0.00000000       0.020
   0.50000000  0.14285714  0.00000000       0.010
   0.00000000  0.28571429  0.00000000       0.010
   0.25000000  0.28571429  0.00000000       0.020
   0.50000000  0.28571429  0.00000000       0.010
   0.00000000  0.42857143  0.00000000       0.010
   0.25000000  0.42857143  0.00000000       0.020
   0.50000000  0.42857143  0.00000000       0.010
   0.00000000  0.00000000  0.14285714       0.010
   0.25000000  0.00000000  0.14285714       0.010
  -0.25000000  0.00000000  0.14285714       0.010
   0.50000000  0.00000000  0.14285714       0.010
   0.00000000  0.14285714  0.14285714       0.020
   0.25000000  0.14285714  0.14285714       0.020
  -0.25000000 -0.14285714  0.14285714       0.020
   0.50000000  0.14285714  0.14285714       0.020
   0.00000000  0.28571429  0.14285714       0.020
   0.25000000  0.28571429  0.14285714       0.020
  -0.25000000 -0.28571429  0.14285714       0.020
   0.50000000  0.28571429  0.14285714       0.020
   0.00000000  0.42857143  0.14285714       0.020
   0.25000000  0.42857143  0.14285714       0.020
  -0.25000000 -0.42857143  0.14285714       0.020
   0.50000000  0.42857143  0.14285714       0.020
   0.00000000  0.00000000  0.28571429       0.010
   0.25000000  0.00000000  0.28571429       0.010
  -0.25000000  0.00000000  0.28571429       0.010
   0.50000000  0.00000000  0.28571429       0.010
   0.00000000  0.14285714  0.28571429       0.020
   0.25000000  0.14285714  0.28571429       0.020
  -0.25000000 -0.14285714  0.28571429       0.020
   0.50000000  0.14285714  0.28571429       0.020
   0.00000000  0.28571429  0.28571429       0.020
   0.25000000  0.28571429  0.28571429       0.020
  -0.25000000 -0.28571429  0.28571429       0.020
   0.50000000  0.28571429  0.28571429       0.020
   0.00000000  0.42857143  0.28571429       0.020
   0.25000000  0.42857143  0.28571429       0.020
  -0.25000000 -0.42857143  0.28571429       0.020
   0.50000000  0.42857143  0.28571429       0.020
   0.00000000  0.00000000  0.42857143       0.010
   0.25000000  0.00000000  0.42857143       0.010
  -0.25000000  0.00000000  0.42857143       0.010
   0.50000000  0.00000000  0.42857143       0.010
   0.00000000  0.14285714  0.42857143       0.020
   0.25000000  0.14285714  0.42857143       0.020
  -0.25000000 -0.14285714  0.42857143       0.020
   0.50000000  0.14285714  0.42857143       0.020
   0.00000000  0.28571429  0.42857143       0.020
   0.25000000  0.28571429  0.42857143       0.020
  -0.25000000 -0.28571429  0.42857143       0.020
   0.50000000  0.28571429  0.42857143       0.020
   0.00000000  0.42857143  0.42857143       0.020
   0.25000000  0.42857143  0.42857143       0.020
  -0.25000000 -0.42857143  0.42857143       0.020
   0.50000000  0.42857143  0.42857143       0.020
 
 position of ions in fractional coordinates (direct lattice) 
   0.24190000  0.25000000  0.17829999
   0.24190000  0.75000000  0.17829999
   0.49190000  0.25000000  0.32170001
   0.49190000  0.75000000  0.32170001
   0.74190003  0.25000000  0.17829999
   0.74190003  0.75000000  0.17829999
   0.99190003  0.25000000  0.32170001
   0.99190003  0.75000000  0.32170001
   0.00810000  0.00000000  0.67830002
   0.25810000  0.00000000  0.82169998
   0.50809997  0.00000000  0.67830002
   0.75809997  0.00000000  0.82169998
   0.00810000  0.50000000  0.67830002
   0.25810000  0.50000000  0.82169998
   0.75809997  0.50000000  0.82169998
   0.17670000  0.25000000  0.55330002
   0.17670000  0.75000000  0.55330002
   0.42670000  0.25000000  0.94669998
   0.42670000  0.75000000  0.94669998
   0.67670000  0.25000000  0.55330002
   0.67670000  0.75000000  0.55330002
   0.92670000  0.25000000  0.94669998
   0.92670000  0.75000000  0.94669998
   0.07330000  0.00000000  0.05330000
   0.32330000  0.00000000  0.44670001
   0.57330000  0.00000000  0.05330000
   0.82330000  0.00000000  0.44670001
   0.07330000  0.50000000  0.05330000
   0.32330000  0.50000000  0.44670001
   0.57330000  0.50000000  0.05330000
   0.82330000  0.50000000  0.44670001
   0.12525000  0.25000000  0.87830001
   0.12525000  0.75000000  0.87830001
   0.37525001  0.25000000  0.62169999
   0.37525001  0.75000000  0.62169999
   0.62524998  0.25000000  0.87830001
   0.62524998  0.75000000  0.87830001
   0.87524998  0.25000000  0.62169999
   0.87524998  0.75000000  0.62169999
   0.12475000  0.00000000  0.37830001
   0.37474999  0.00000000  0.12170000
   0.62475002  0.00000000  0.37830001
   0.87475002  0.00000000  0.12170000
   0.12475000  0.50000000  0.37830001
   0.37474999  0.50000000  0.12170000
   0.62475002  0.50000000  0.37830001
   0.87475002  0.50000000  0.12170000
   0.50809997  0.50000000  0.67830002
 
 position of ions in cartesian coordinates  (Angst):
   2.86780948  1.83102277  1.23721870
   2.86780948  5.49306832  1.23721870
   5.83164734  1.83102277  2.23226742
   5.83164734  5.49306832  2.23226742
   8.79548555  1.83102277  1.23721870
   8.79548555  5.49306832  1.23721870
  11.75932341  1.83102277  2.23226742
  11.75932341  5.49306832  2.23226742
   0.09602835  0.00000000  4.70670502
   3.05986624  0.00000000  5.70175332
   6.02370374  0.00000000  4.70670502
   8.98754160  0.00000000  5.70175332
   0.09602835  3.66204555  4.70670502
   3.05986624  3.66204555  5.70175332
   8.98754160  3.66204555  5.70175332
   2.09484055  1.83102277  3.83933349
   2.09484055  5.49306832  3.83933349
   5.05867841  1.83102277  6.56912485
   5.05867841  5.49306832  6.56912485
   8.02251627  1.83102277  3.83933349
   8.02251627  5.49306832  3.83933349
  10.98635413  1.83102277  6.56912485
  10.98635413  5.49306832  6.56912485
   0.86899722  0.00000000  0.36984723
   3.83283517  0.00000000  3.09963894
   6.79667303  0.00000000  0.36984723
   9.76051088  0.00000000  3.09963894
   0.86899722  3.66204555  0.36984723
   3.83283517  3.66204555  3.09963894
   6.79667303  3.66204555  0.36984723
   9.76051088  3.66204555  3.09963894
   1.48488273  1.83102277  6.09449939
   1.48488273  5.49306832  6.09449939
   4.44872077  1.83102277  4.31395896
   4.44872077  5.49306832  4.31395896
   7.41255827  1.83102277  6.09449939
   7.41255827  5.49306832  6.09449939
  10.37639613  1.83102277  4.31395896
  10.37639613  5.49306832  4.31395896
   1.47895513  0.00000000  2.62501327
   4.44279281  0.00000000  0.84447289
   7.40663102  0.00000000  2.62501327
  10.37046888  0.00000000  0.84447289
   1.47895513  3.66204555  2.62501327
   4.44279281  3.66204555  0.84447289
   7.40663102  3.66204555  2.62501327
  10.37046888  3.66204555  0.84447289
   6.02370374  3.66204555  4.70670502
 


--------------------------------------------------------------------------------------------------------


 k-point   1 :   0.0000 0.0000 0.0000  plane waves:   13045
 k-point   2 :   0.2500 0.0000 0.0000  plane waves:   13039
 k-point   3 :   0.5000 0.0000 0.0000  plane waves:   13034
 k-point   4 :   0.0000 0.1429 0.0000  plane waves:   13041
 k-point   5 :   0.2500 0.1429 0.0000  plane waves:   13047
 k-point   6 :   0.5000 0.1429 0.0000  plane waves:   13048
 k-point   7 :   0.0000 0.2857 0.0000  plane waves:   13039
 k-point   8 :   0.2500 0.2857 0.0000  plane waves:   13030
 k-point   9 :   0.5000 0.2857 0.0000  plane waves:   13046
 k-point  10 :   0.0000 0.4286 0.0000  plane waves:   13058
 k-point  11 :   0.2500 0.4286 0.0000  plane waves:   13021
 k-point  12 :   0.5000 0.4286 0.0000  plane waves:   13000
 k-point  13 :   0.0000 0.0000 0.1429  plane waves:   13034
 k-point  14 :   0.2500 0.0000 0.1429  plane waves:   13059
 k-point  15 :  -0.2500 0.0000 0.1429  plane waves:   13059
 k-point  16 :   0.5000 0.0000 0.1429  plane waves:   13070
 k-point  17 :   0.0000 0.1429 0.1429  plane waves:   13077
 k-point  18 :   0.2500 0.1429 0.1429  plane waves:   13060
 k-point  19 :  -0.2500-0.1429 0.1429  plane waves:   13060
 k-point  20 :   0.5000 0.1429 0.1429  plane waves:   13074
 k-point  21 :   0.0000 0.2857 0.1429  plane waves:   13046
 k-point  22 :   0.2500 0.2857 0.1429  plane waves:   13059
 k-point  23 :  -0.2500-0.2857 0.1429  plane waves:   13059
 k-point  24 :   0.5000 0.2857 0.1429  plane waves:   13040
 k-point  25 :   0.0000 0.4286 0.1429  plane waves:   13072
 k-point  26 :   0.2500 0.4286 0.1429  plane waves:   13042
 k-point  27 :  -0.2500-0.4286 0.1429  plane waves:   13042
 k-point  28 :   0.5000 0.4286 0.1429  plane waves:   13026
 k-point  29 :   0.0000 0.0000 0.2857  plane waves:   13086
 k-point  30 :   0.2500 0.0000 0.2857  plane waves:   13064
 k-point  31 :  -0.2500 0.0000 0.2857  plane waves:   13064
 k-point  32 :   0.5000 0.0000 0.2857  plane waves:   13070
 k-point  33 :   0.0000 0.1429 0.2857  plane waves:   13064
 k-point  34 :   0.2500 0.1429 0.2857  plane waves:   13070
 k-point  35 :  -0.2500-0.1429 0.2857  plane waves:   13070
 k-point  36 :   0.5000 0.1429 0.2857  plane waves:   13050
 k-point  37 :   0.0000 0.2857 0.2857  plane waves:   13053
 k-point  38 :   0.2500 0.2857 0.2857  plane waves:   13067
 k-point  39 :  -0.2500-0.2857 0.2857  plane waves:   13067
 k-point  40 :   0.5000 0.2857 0.2857  plane waves:   13044
 k-point  41 :   0.0000 0.4286 0.2857  plane waves:   13049
 k-point  42 :   0.2500 0.4286 0.2857  plane waves:   13075
 k-point  43 :  -0.2500-0.4286 0.2857  plane waves:   13075
 k-point  44 :   0.5000 0.4286 0.2857  plane waves:   13072
 k-point  45 :   0.0000 0.0000 0.4286  plane waves:   13072
 k-point  46 :   0.2500 0.0000 0.4286  plane waves:   13077
 k-point  47 :  -0.2500 0.0000 0.4286  plane waves:   13077
 k-point  48 :   0.5000 0.0000 0.4286  plane waves:   13046
 k-point  49 :   0.0000 0.1429 0.4286  plane waves:   13069
 k-point  50 :   0.2500 0.1429 0.4286  plane waves:   13060
 k-point  51 :  -0.2500-0.1429 0.4286  plane waves:   13060
 k-point  52 :   0.5000 0.1429 0.4286  plane waves:   13056
 k-point  53 :   0.0000 0.2857 0.4286  plane waves:   13072
 k-point  54 :   0.2500 0.2857 0.4286  plane waves:   13068
 k-point  55 :  -0.2500-0.2857 0.4286  plane waves:   13068
 k-point  56 :   0.5000 0.2857 0.4286  plane waves:   13058
 k-point  57 :   0.0000 0.4286 0.4286  plane waves:   13085
 k-point  58 :   0.2500 0.4286 0.4286  plane waves:   13076
 k-point  59 :  -0.2500-0.4286 0.4286  plane waves:   13076
 k-point  60 :   0.5000 0.4286 0.4286  plane waves:   13062

 maximum and minimum number of plane-waves per node :      2220     2132

 maximum number of plane-waves:     13086
 maximum index in each direction: 
   IXMAX=   20   IYMAX=   13   IZMAX=   12
   IXMIN=  -21   IYMIN=  -13   IZMIN=  -12


 parallel 3D FFT for wavefunctions:
    minimum data exchange during FFTs selected (reduces bandwidth)
 parallel 3D FFT for charge:
    minimum data exchange during FFTs selected (reduces bandwidth)


 total amount of memory used by VASP MPI-rank0   529396. kBytes
=======================================================================

   base      :      30000. kBytes
   nonl-proj :      78428. kBytes
   fftplans  :       3576. kBytes
   grid      :      10028. kBytes
   one-center:        248. kBytes
   wavefun   :     407116. kBytes
 
     INWAV:  cpu time    0.0000: real time    0.0004
 Broyden mixing: mesh for mixing (old mesh)
   NGX = 41   NGY = 25   NGZ = 25
  (NGX  =168   NGY  =108   NGZ  = 96)
  gives a total of  25625 points

 initial charge density was supplied:
 charge density of overlapping atoms calculated
 number of electron     337.0000000 magnetization     160.0000000
 keeping initial charge density in first step


--------------------------------------------------------------------------------------------------------


 Maximum index for augmentation-charges          840 (set IRDMAX)


--------------------------------------------------------------------------------------------------------


 First call to EWALD:  gamma=   0.210
 Maximum number of real-space cells 2x 3x 3
 Maximum number of reciprocal cells 4x 2x 2

    FEWALD:  cpu time    0.0030: real time    0.0139


--------------------------------------- Iteration      1(   1)  ---------------------------------------


    POTLOK:  cpu time    0.1480: real time    0.3893
    SETDIJ:  cpu time    0.0310: real time    0.2005
     EDDAV:  cpu time  270.2659: real time  272.2712
       DOS:  cpu time    0.0380: real time    0.0658
    --------------------------------------------
      LOOP:  cpu time  270.4829: real time  272.9268

 eigenvalue-minimisations  : 86400
 total energy-change (2. order) : 0.2839932E+04  (-0.1086976E+05)
 number of electron     337.0000000 magnetization     160.0000000
 augmentation part      337.0000000 magnetization     160.0000000

 Free energy of the ion-electron system (eV)
  ---------------------------------------------------
  alpha Z        PSCENC =      1594.04398466
  Ewald energy   TEWEN  =    -22332.37529789
  -Hartree energ DENC   =     -6889.32060552
  -exchange      EXHF   =         0.00000000
  -V(xc)+E(xc)   XCENC  =       319.29472376
  PAW double counting   =     23377.83946347   -23998.34197029
  entropy T*S    EENTRO =         0.00544777
  eigenvalues    EBANDS =      5000.55962657
  atomic energy  EATOM  =     25768.22672671
  Solvation  Ediel_sol  =         0.00000000
  ---------------------------------------------------
  free energy    TOTEN  =      2839.93209925 eV

  energy without entropy =     2839.92665148  energy(sigma->0) =     2839.93028333


--------------------------------------------------------------------------------------------------------




--------------------------------------- Iteration      1(   2)  ---------------------------------------


     EDDAV:  cpu time  270.2509: real time  271.2352
       DOS:  cpu time    0.0450: real time    0.0451
    --------------------------------------------
      LOOP:  cpu time  270.2959: real time  271.2803

 eigenvalue-minimisations  : 86400
 total energy-change (2. order) :-0.2655769E+04  (-0.2363608E+04)
 number of electron     337.0000000 magnetization     160.0000000
 augmentation part      337.0000000 magnetization     160.0000000

 Free energy of the ion-electron system (eV)
  ---------------------------------------------------
  alpha Z        PSCENC =      1594.04398466
  Ewald energy   TEWEN  =    -22332.37529789
  -Hartree energ DENC   =     -6889.32060552
  -exchange      EXHF   =         0.00000000
  -V(xc)+E(xc)   XCENC  =       319.29472376
  PAW double counting   =     23377.83946347   -23998.34197029
  entropy T*S    EENTRO =         0.00450205
  eigenvalues    EBANDS =      2344.79173111
  atomic energy  EATOM  =     25768.22672671
  Solvation  Ediel_sol  =         0.00000000
  ---------------------------------------------------
  free energy    TOTEN  =       184.16325807 eV

  energy without entropy =      184.15875602  energy(sigma->0) =      184.16175739


--------------------------------------------------------------------------------------------------------




--------------------------------------- Iteration      1(   3)  ---------------------------------------


     EDDAV:  cpu time  270.4839: real time  271.4138
       DOS:  cpu time    0.0510: real time    0.0508
    --------------------------------------------
      LOOP:  cpu time  270.5349: real time  271.4646

 eigenvalue-minimisations  : 86496
 total energy-change (2. order) :-0.4496753E+03  (-0.3717313E+03)
 number of electron     337.0000000 magnetization     160.0000000
 augmentation part      337.0000000 magnetization     160.0000000

 Free energy of the ion-electron system (eV)
  ---------------------------------------------------
  alpha Z        PSCENC =      1594.04398466
  Ewald energy   TEWEN  =    -22332.37529789
  -Hartree energ DENC   =     -6889.32060552
  -exchange      EXHF   =         0.00000000
  -V(xc)+E(xc)   XCENC  =       319.29472376
  PAW double counting   =     23377.83946347   -23998.34197029
  entropy T*S    EENTRO =        -0.01989179
  eigenvalues    EBANDS =      1895.14078961
  atomic energy  EATOM  =     25768.22672671
  Solvation  Ediel_sol  =         0.00000000
  ---------------------------------------------------
  free energy    TOTEN  =      -265.51207727 eV

  energy without entropy =     -265.49218548  energy(sigma->0) =     -265.50544667


--------------------------------------------------------------------------------------------------------




--------------------------------------- Iteration      1(   4)  ---------------------------------------


     EDDAV:  cpu time  317.0298: real time  318.2526
       DOS:  cpu time    0.0520: real time    0.0527
    --------------------------------------------
      LOOP:  cpu time  317.0818: real time  318.3053

 eigenvalue-minimisations  :106064
 total energy-change (2. order) :-0.3208307E+02  (-0.3082459E+02)
 number of electron     337.0000000 magnetization     160.0000000
 augmentation part      337.0000000 magnetization     160.0000000

 Free energy of the ion-electron system (eV)
  ---------------------------------------------------
  alpha Z        PSCENC =      1594.04398466
  Ewald energy   TEWEN  =    -22332.37529789
  -Hartree energ DENC   =     -6889.32060552
  -exchange      EXHF   =         0.00000000
  -V(xc)+E(xc)   XCENC  =       319.29472376
  PAW double counting   =     23377.83946347   -23998.34197029
  entropy T*S    EENTRO =        -0.01046130
  eigenvalues    EBANDS =      1863.04829322
  atomic energy  EATOM  =     25768.22672671
  Solvation  Ediel_sol  =         0.00000000
  ---------------------------------------------------
  free energy    TOTEN  =      -297.59514317 eV

  energy without entropy =     -297.58468187  energy(sigma->0) =     -297.59165607


--------------------------------------------------------------------------------------------------------




--------------------------------------- Iteration      1(   5)  ---------------------------------------


     EDDAV:  cpu time  312.3385: real time  313.4480
       DOS:  cpu time    0.0530: real time    0.0533
    CHARGE:  cpu time    4.3333: real time    4.4769
    MIXING:  cpu time    0.0050: real time    0.0066
    --------------------------------------------
      LOOP:  cpu time  316.7298: real time  317.9848

 eigenvalue-minimisations  :104080
 total energy-change (2. order) :-0.8186134E+00  (-0.8169073E+00)
 number of electron     337.0000018 magnetization     130.7357728
 augmentation part      119.0175484 magnetization     110.1051680

 Broyden mixing:
  rms(total) = 0.10501E+02    rms(broyden)= 0.10501E+02
  rms(prec ) = 0.11261E+02
  weight for this iteration     100.00

 Free energy of the ion-electron system (eV)
  ---------------------------------------------------
  alpha Z        PSCENC =      1594.04398466
  Ewald energy   TEWEN  =    -22332.37529789
  -Hartree energ DENC   =     -6889.32060552
  -exchange      EXHF   =         0.00000000
  -V(xc)+E(xc)   XCENC  =       319.29472376
  PAW double counting   =     23377.83946347   -23998.34197029
  entropy T*S    EENTRO =        -0.00989831
  eigenvalues    EBANDS =      1862.22911678
  atomic energy  EATOM  =     25768.22672671
  Solvation  Ediel_sol  =         0.00000000
  ---------------------------------------------------
  free energy    TOTEN  =      -298.41375662 eV

  energy without entropy =     -298.40385831  energy(sigma->0) =     -298.41045718


--------------------------------------------------------------------------------------------------------




--------------------------------------- Iteration      1(   6)  ---------------------------------------


    POTLOK:  cpu time    0.1370: real time    0.1395
    SETDIJ:  cpu time    0.0260: real time    0.0264
     EDDAV:  cpu time  328.7970: real time  329.9702
       DOS:  cpu time    0.0520: real time    0.0523
    CHARGE:  cpu time    4.0374: real time    4.0445
    MIXING:  cpu time    0.0060: real time    0.1661
    --------------------------------------------
      LOOP:  cpu time  333.0554: real time  334.3988

 eigenvalue-minimisations  :109336
 total energy-change (2. order) :-0.7078388E+02  (-0.2203518E+02)
 number of electron     337.0000011 magnetization     119.1551006
 augmentation part      158.6099730 magnetization      95.3526977

 Broyden mixing:
  rms(total) = 0.11138E+02    rms(broyden)= 0.11138E+02
  rms(prec ) = 0.12623E+02
  weight for this iteration     100.00

 eigenvalues of (default mixing * dielectric matrix)
  average eigenvalue GAMMA=   0.6478
  0.6478

 Free energy of the ion-electron system (eV)
  ---------------------------------------------------
  alpha Z        PSCENC =      1594.04398466
  Ewald energy   TEWEN  =    -22332.37529789
  -Hartree energ DENC   =     -5972.26478654
  -exchange      EXHF   =         0.00000000
  -V(xc)+E(xc)   XCENC  =       236.66906795
  PAW double counting   =     25945.95466217   -26424.54827491
  entropy T*S    EENTRO =        -0.00236307
  eigenvalues    EBANDS =       815.09864126
  atomic energy  EATOM  =     25768.22672671
  Solvation  Ediel_sol  =         0.00000000
  ---------------------------------------------------
  free energy    TOTEN  =      -369.19763965 eV

  energy without entropy =     -369.19527658  energy(sigma->0) =     -369.19685196


--------------------------------------------------------------------------------------------------------




--------------------------------------- Iteration      1(   7)  ---------------------------------------


    POTLOK:  cpu time    0.1360: real time    0.1393
    SETDIJ:  cpu time    0.0260: real time    0.0266
     EDDAV:  cpu time  320.2903: real time  321.4345
       DOS:  cpu time    0.0500: real time    0.0497
    CHARGE:  cpu time    3.9534: real time    3.9695
    MIXING:  cpu time    0.0050: real time    0.0347
    --------------------------------------------
      LOOP:  cpu time  324.4607: real time  325.6542

 eigenvalue-minimisations  :105912
 total energy-change (2. order) : 0.5806322E+02  (-0.1897375E+02)
 number of electron     337.0000034 magnetization     104.6046244
 augmentation part      149.3092708 magnetization      86.1113778

 Broyden mixing:
  rms(total) = 0.76209E+01    rms(broyden)= 0.76207E+01
  rms(prec ) = 0.98748E+01
  weight for this iteration     100.00

 eigenvalues of (default mixing * dielectric matrix)
  average eigenvalue GAMMA=   0.6168
  0.9344  0.2992

 Free energy of the ion-electron system (eV)
  ---------------------------------------------------
  alpha Z        PSCENC =      1594.04398466
  Ewald energy   TEWEN  =    -22332.37529789
  -Hartree energ DENC   =     -6368.26752029
  -exchange      EXHF   =         0.00000000
  -V(xc)+E(xc)   XCENC  =       252.22966599
  PAW double counting   =     27686.06216223   -28305.86035731
  entropy T*S    EENTRO =         0.01450375
  eigenvalues    EBANDS =      1394.79170917
  atomic energy  EATOM  =     25768.22672671
  Solvation  Ediel_sol  =         0.00000000
  ---------------------------------------------------
  free energy    TOTEN  =      -311.13442297 eV

  energy without entropy =     -311.14892672  energy(sigma->0) =     -311.13925756


--------------------------------------------------------------------------------------------------------




[...]
   43       -0.017  -0.110   0.003  -0.124
   44       -0.016  -0.111   0.003  -0.124
   45       -0.017  -0.110   0.003  -0.124
   46       -0.014  -0.102   0.000  -0.115
   47       -0.017  -0.111   0.003  -0.125
   48        0.009  -0.003   2.144   2.150
--------------------------------------------------
tot         -0.280  -2.222  47.674  45.172
 
    CHARGE:  cpu time    4.0194: real time    4.0269
    FORLOC:  cpu time    0.0210: real time    0.0501
    FORNL :  cpu time   96.3094: real time   96.5901
    STRESS:  cpu time  166.8456: real time  167.4406
    FORCOR:  cpu time    0.1520: real time    0.1999
    FORHAR:  cpu time    0.0320: real time    0.0494
    MIXING:  cpu time    0.0070: real time    0.0082
    OFIELD:  cpu time    0.0010: real time    0.0047

  FORCE on cell =-STRESS in cart. coord.  units (eV):
  Direction    XX          YY          ZZ          XY          YZ          ZX
  --------------------------------------------------------------------------------------
  Alpha Z  1594.04398  1594.04398  1594.04398
  Ewald   -7681.35472 -7094.46458 -7556.65785     0.00000     0.00000     0.12828
  Hartree  2074.98863  2349.64584  1975.81260    -0.00000    -0.00000    -1.09638
  E(xc)   -1662.05767 -1664.54777 -1662.07241     0.00000     0.00000     0.14161
  Local    -325.23460 -1139.63630  -317.93437     0.00000     0.00000     2.09352
  n-local  -232.43312  -209.70247  -213.72368    -0.04466    -0.82878     0.57803
  augment  3339.26639  3320.63002  3310.63258    -0.00000    -0.00000    -0.86697
  Kinetic  2914.51569  2880.09500  2892.72557     0.04099     0.35873    -1.09768
  Fock        0.00000     0.00000     0.00000     0.00000     0.00000     0.00000
  -------------------------------------------------------------------------------------
  Total      21.73458    36.06372    22.82642     0.00000     0.00000    -0.11959
  in kB      57.79611    95.89982    60.69949     0.00000     0.00000    -0.31800
  external pressure =       71.47 kB  Pullay stress =        0.00 kB


 VOLUME and BASIS-vectors are now :
 -----------------------------------------------------------------------------
  energy-cutoff  :      450.00
  volume of cell :      602.51
      direct lattice vectors                 reciprocal lattice vectors
    11.855351435  0.000000000  0.000000000     0.084350093  0.000000000  0.000000000
     0.000000000  7.324091093  0.000000000     0.000000000  0.136535713  0.000000000
     0.000000000  0.000000000  6.938972230     0.000000000  0.000000000  0.144113561

  length of vectors
    11.855351435  7.324091093  6.938972230     0.084350093  0.136535713  0.144113561


 FORCES acting on ions
    electron-ion (+dipol)            ewald-force                    non-local-force                 convergence-correction
 -----------------------------------------------------------------------------------------------
   0.106E+02 0.106E+01 0.368E+02   -.108E+02 -.104E+01 -.366E+02   -.582E+00 -.822E-02 0.122E+00   -.156E-02 0.126E-02 -.146E-02
   0.106E+02 -.106E+01 0.368E+02   -.108E+02 0.104E+01 -.366E+02   -.582E+00 0.822E-02 0.122E+00   -.156E-02 -.126E-02 -.146E-02
   0.703E+01 0.502E+01 -.318E+02   -.720E+01 -.512E+01 0.315E+02   -.599E+00 0.783E-01 -.133E-01   0.456E-02 0.244E-03 0.778E-03
   0.703E+01 -.502E+01 -.318E+02   -.720E+01 0.512E+01 0.315E+02   -.599E+00 -.783E-01 -.133E-01   0.456E-02 -.244E-03 0.778E-03
   0.145E+01 0.129E+01 0.368E+02   -.160E+01 -.132E+01 -.366E+02   -.617E+00 0.252E-01 0.121E+00   0.178E-02 -.647E-03 0.154E-02
   0.145E+01 -.129E+01 0.368E+02   -.160E+01 0.132E+01 -.366E+02   -.617E+00 -.252E-01 0.121E+00   0.178E-02 0.647E-03 0.154E-02
   0.581E+01 0.288E+00 -.367E+02   -.597E+01 -.286E+00 0.365E+02   -.602E+00 -.479E-02 -.110E+00   -.455E-02 -.175E-02 0.195E-02
   0.581E+01 -.288E+00 -.367E+02   -.597E+01 0.286E+00 0.365E+02   -.602E+00 0.479E-02 -.110E+00   -.455E-02 0.175E-02 0.195E-02
   -.618E+01 -.135E-12 0.368E+02   0.634E+01 0.229E-13 -.366E+02   0.599E+00 0.000E+00 0.116E+00   -.330E-02 -.633E-14 -.138E-02
   -.143E+01 -.340E-13 -.375E+02   0.155E+01 -.256E-13 0.373E+02   0.638E+00 0.000E+00 -.139E+00   -.255E-02 0.496E-13 -.142E-02
   -.618E+01 0.191E-12 0.368E+02   0.634E+01 0.111E-13 -.366E+02   0.643E+00 0.000E+00 0.113E+00   0.360E-02 0.123E-13 -.256E-03
   -.109E+02 -.999E-13 -.375E+02   0.111E+02 0.232E-13 0.373E+02   0.593E+00 0.000E+00 -.129E+00   0.218E-02 0.443E-13 -.195E-02
   -.618E+01 0.999E-13 0.368E+02   0.634E+01 0.896E-14 -.366E+02   0.612E+00 0.000E+00 0.119E+00   -.166E-02 -.854E-15 -.409E-03
   0.408E+01 0.101E-11 -.392E+02   -.384E+01 -.147E-13 0.390E+02   0.691E+00 0.000E+00 -.158E+00   -.973E-03 0.481E-13 -.169E-02
   -.164E+02 0.145E-11 -.392E+02   0.165E+02 0.277E-13 0.390E+02   0.563E+00 0.000E+00 -.143E+00   0.560E-03 0.435E-13 -.926E-03
   0.809E+02 0.153E+01 -.406E+02   -.806E+02 -.152E+01 0.415E+02   -.176E-01 -.113E-01 -.322E+00   -.494E-02 0.103E-02 0.501E-02
   0.809E+02 -.153E+01 -.406E+02   -.806E+02 0.152E+01 0.415E+02   -.176E-01 0.113E-01 -.322E+00   -.494E-02 -.103E-02 0.501E-02
   0.818E+02 0.986E+01 0.320E+02   -.814E+02 -.987E+01 -.329E+02   -.693E-01 0.294E-01 0.309E+00   0.144E-02 0.147E-02 -.213E-02
   0.818E+02 -.986E+01 0.320E+02   -.814E+02 0.987E+01 -.329E+02   -.693E-01 -.294E-01 0.309E+00   0.144E-02 -.147E-02 -.213E-02
   0.606E+02 0.880E+01 -.371E+02   -.602E+02 -.884E+01 0.380E+02   -.146E+00 0.448E-01 -.315E+00   0.659E-02 -.610E-03 -.126E-02
   0.606E+02 -.880E+01 -.371E+02   -.602E+02 0.884E+01 0.380E+02   -.146E+00 -.448E-01 -.315E+00   0.659E-02 0.610E-03 -.126E-02
   0.714E+02 0.594E+00 0.409E+02   -.711E+02 -.586E+00 -.418E+02   -.438E-01 -.657E-02 0.320E+00   -.369E-02 -.196E-02 -.128E-02
   0.714E+02 -.594E+00 0.409E+02   -.711E+02 0.586E+00 -.418E+02   -.438E-01 0.657E-02 0.320E+00   -.369E-02 0.196E-02 -.128E-02
   -.724E+02 -.247E-13 -.416E+02   0.721E+02 0.855E-13 0.425E+02   0.692E-01 0.000E+00 -.324E+00   -.683E-02 0.158E-12 -.332E-02
   -.677E+02 0.569E-13 0.433E+02   0.673E+02 0.589E-13 -.442E+02   0.118E+00 0.000E+00 0.346E+00   0.865E-03 0.119E-12 0.362E-02
   -.771E+02 0.228E-12 -.436E+02   0.768E+02 -.158E-13 0.445E+02   0.912E-01 0.000E+00 -.333E+00   0.593E-02 0.154E-12 0.806E-03
   -.795E+02 -.762E-13 0.421E+02   0.792E+02 -.166E-13 -.430E+02   -.325E-03 0.000E+00 0.341E+00   0.838E-03 0.117E-12 0.127E-02
   -.719E+02 0.104E-11 -.417E+02   0.716E+02 0.869E-13 0.426E+02   0.634E-01 0.000E+00 -.311E+00   -.270E-02 0.167E-12 -.239E-02
   -.574E+02 -.170E-11 0.502E+02   0.570E+02 0.410E-13 -.511E+02   0.151E+00 0.000E+00 0.366E+00   0.192E-03 0.120E-12 0.616E-02
   -.811E+02 0.257E-11 -.536E+02   0.807E+02 -.281E-13 0.544E+02   0.286E-01 0.000E+00 -.263E+00   0.632E-02 0.122E-12 0.155E-03
   -.825E+02 -.527E-11 0.431E+02   0.821E+02 -.311E-13 -.440E+02   0.849E-01 0.000E+00 0.297E+00   -.236E-02 0.128E-12 0.951E-03
   -.326E+02 0.332E+00 0.150E+02   0.329E+02 -.337E+00 -.147E+02   -.748E+00 -.332E-03 -.761E+00   -.933E-03 0.792E-04 -.174E-02
   -.326E+02 -.332E+00 0.150E+02   0.329E+02 0.337E+00 -.147E+02   -.748E+00 0.332E-03 -.761E+00   -.933E-03 -.792E-04 -.174E-02
   -.277E+02 0.600E+01 -.138E+02   0.280E+02 -.602E+01 0.136E+02   -.546E+00 0.220E+00 0.781E+00   -.456E-03 0.105E-02 0.119E-02
   -.277E+02 -.600E+01 -.138E+02   0.280E+02 0.602E+01 0.136E+02   -.546E+00 -.220E+00 0.781E+00   -.456E-03 -.105E-02 0.119E-02
   -.389E+02 0.438E+01 0.119E+02   0.393E+02 -.441E+01 -.116E+02   -.853E+00 0.107E+00 -.846E+00   0.306E-02 -.758E-04 -.257E-03
   -.389E+02 -.438E+01 0.119E+02   0.393E+02 0.441E+01 -.116E+02   -.853E+00 -.107E+00 -.846E+00   0.306E-02 0.758E-04 -.257E-03
   -.364E+02 0.454E+00 -.151E+02   0.368E+02 -.446E+00 0.148E+02   -.760E+00 0.773E-03 0.759E+00   -.969E-03 -.174E-02 -.885E-03
   -.364E+02 -.454E+00 -.151E+02   0.368E+02 0.446E+00 0.148E+02   -.760E+00 -.773E-03 0.759E+00   -.969E-03 0.174E-02 -.885E-03
   0.357E+02 -.844E-13 0.153E+02   -.360E+02 -.103E-13 -.151E+02   0.757E+00 0.000E+00 -.754E+00   -.417E-02 -.807E-14 0.190E-02
   0.362E+02 -.131E-12 -.155E+02   -.366E+02 0.278E-13 0.153E+02   0.751E+00 0.000E+00 0.750E+00   0.165E-02 0.418E-14 -.126E-02
   0.323E+02 -.485E-13 0.162E+02   -.327E+02 0.203E-13 -.160E+02   0.752E+00 0.000E+00 -.761E+00   0.361E-02 -.398E-14 0.351E-03
   0.329E+02 0.398E-13 -.153E+02   -.332E+02 0.276E-13 0.150E+02   0.747E+00 0.000E+00 0.757E+00   -.162E-02 0.777E-15 0.145E-02
   0.361E+02 -.131E-13 0.155E+02   -.365E+02 -.916E-14 -.152E+02   0.760E+00 0.000E+00 -.758E+00   -.210E-02 -.101E-13 0.117E-02
   0.376E+02 -.103E-11 -.165E+02   -.380E+02 0.284E-13 0.163E+02   0.746E+00 0.000E+00 0.768E+00   0.449E-03 -.368E-14 -.160E-02
   0.288E+02 0.148E-11 0.212E+02   -.290E+02 0.238E-13 -.209E+02   0.562E+00 0.000E+00 -.531E+00   0.308E-02 -.128E-13 0.308E-03
   0.324E+02 0.882E-12 -.153E+02   -.328E+02 0.277E-13 0.150E+02   0.751E+00 0.000E+00 0.762E+00   -.210E-02 0.105E-14 0.573E-03
   -.708E+01 -.207E-11 0.421E+02   0.725E+01 0.291E-13 -.419E+02   0.477E+00 0.000E+00 -.154E+00   0.199E-02 -.412E-14 -.644E-03
 -----------------------------------------------------------------------------------------------
   -.849E-01 0.424E-10 -.694E-01   -.245E-12 -.880E-14 0.192E-12   0.832E-01 0.000E+00 0.656E-01   0.154E-02 0.235E-11 0.439E-02
 
 
 POSITION                                       TOTAL-FORCE (eV/Angst)
 -----------------------------------------------------------------------------------
      2.86781      1.83102      1.23722        -0.779414      0.010193      0.312190
      2.86781      5.49307      1.23722        -0.779414     -0.010193      0.312190
      5.83165      1.83102      2.23227        -0.764311     -0.025683     -0.285203
      5.83165      5.49307      2.23227        -0.764311      0.025683     -0.285203
      8.79549      1.83102      1.23722        -0.765712     -0.002771      0.307406
      8.79549      5.49307      1.23722        -0.765712      0.002771      0.307406
     11.75932      1.83102      2.23227        -0.760585     -0.003901     -0.319080
     11.75932      5.49307      2.23227        -0.760585      0.003901     -0.319080
      0.09603      0.00000      4.70671         0.761610      0.000000      0.319596
      3.05987      0.00000      5.70175         0.751533      0.000000     -0.306137
      6.02370      0.00000      4.70671         0.806172      0.000000      0.285902
      8.98754      0.00000      5.70175         0.786011      0.000000     -0.305029
      0.09603      3.66205      4.70671         0.774007      0.000000      0.324453
      3.05987      3.66205      5.70175         0.922521      0.000000     -0.360109
      8.98754      3.66205      5.70175         0.730533      0.000000     -0.341959
      2.09484      1.83102      3.83933         0.278231     -0.002104      0.580193
      2.09484      5.49307      3.83933         0.278231      0.002104      0.580193
      5.05868      1.83102      6.56912         0.239635      0.017187     -0.598641
      5.05868      5.49307      6.56912         0.239635     -0.017187     -0.598641
      8.02252      1.83102      3.83933         0.213770     -0.004694      0.557856
      8.02252      5.49307      3.83933         0.213770      0.004694      0.557856
     10.98635      1.83102      6.56912         0.269650     -0.001053     -0.580596
     10.98635      5.49307      6.56912         0.269650      0.001053     -0.580596
      0.86900      0.00000      0.36985        -0.261103      0.000000      0.583006
      3.83284      0.00000      3.09964        -0.270200      0.000000     -0.592269
      6.79667      0.00000      0.36985        -0.213249      0.000000      0.578306
      9.76051      0.00000      3.09964        -0.273878      0.000000     -0.573525
      0.86900      3.66205      0.36985        -0.266879      0.000000      0.583124
      3.83284      3.66205      3.09964        -0.203083      0.000000     -0.552133
      6.79667      3.66205      0.36985        -0.316444      0.000000      0.533371
      9.76051      3.66205      3.09964        -0.278178      0.000000     -0.584648
      1.48488      1.83102      6.09450        -0.397308     -0.005518     -0.483352
      1.48488      5.49307      6.09450        -0.397308      0.005518     -0.483352
      4.44872      1.83102      4.31396        -0.254737      0.197674      0.554054
      4.44872      5.49307      4.31396        -0.254737     -0.197674      0.554054
      7.41256      1.83102      6.09450        -0.495919      0.078513     -0.539953
      7.41256      5.49307      6.09450        -0.495919     -0.078513     -0.539953
     10.37640      1.83102      4.31396        -0.406400      0.006447      0.496165
     10.37640      5.49307      4.31396        -0.406400     -0.006447      0.496165
      1.47896      0.00000      2.62501         0.383084      0.000000     -0.493131
      4.44279      0.00000      0.84447         0.439036      0.000000      0.456081
      7.40663      0.00000      2.62501         0.394241      0.000000     -0.488982
     10.37047      0.00000      0.84447         0.405015      0.000000      0.487124
      1.47896      3.66205      2.62501         0.399915      0.000000     -0.486246
      4.44279      3.66205      0.84447         0.395359      0.000000      0.486287
      7.40663      3.66205      2.62501         0.334442      0.000000     -0.147461
     10.37047      3.66205      0.84447         0.395898      0.000000      0.489236
      6.02370      3.66205      4.70671         0.649837      0.000000      0.103065
 -----------------------------------------------------------------------------------
    total drift:                               -0.000085      0.000000      0.000567


--------------------------------------------------------------------------------------------------------



  FREE ENERGIE OF THE ION-ELECTRON SYSTEM (eV)
  ---------------------------------------------------
  free  energy   TOTEN  =      -312.58483058 eV

  energy  without entropy=     -312.61785844  energy(sigma->0) =     -312.59583987
 


--------------------------------------------------------------------------------------------------------


    POTLOK:  cpu time    0.1660: real time    0.2125


--------------------------------------------------------------------------------------------------------


     LOOP+:  cpu time12093.1166: real time12141.3625
    4ORBIT:  cpu time    0.0000: real time    0.0000
 


 total charge     
 
# of ion       s       p       d       tot
------------------------------------------
    1        0.270   0.319   5.100   5.689
    2        0.270   0.319   5.100   5.689
    3        0.270   0.318   5.098   5.687
    4        0.270   0.318   5.098   5.687
    5        0.270   0.319   5.100   5.689
    6        0.270   0.319   5.100   5.689
    7        0.270   0.319   5.100   5.689
    8        0.270   0.319   5.100   5.689
    9        0.270   0.319   5.099   5.688
   10        0.270   0.319   5.100   5.689
   11        0.271   0.319   5.100   5.690
   12        0.270   0.319   5.099   5.688
   13        0.270   0.319   5.099   5.688
   14        0.270   0.318   5.097   5.686
   15        0.270   0.318   5.100   5.688
   16        0.471   0.580   8.461   9.513
   17        0.471   0.580   8.461   9.513
   18        0.471   0.576   8.463   9.509
   19        0.471   0.576   8.463   9.509
   20        0.471   0.577   8.461   9.509
   21        0.471   0.577   8.461   9.509
   22        0.472   0.580   8.462   9.513
   23        0.472   0.580   8.462   9.513
   24        0.471   0.580   8.462   9.513
   25        0.471   0.578   8.464   9.513
   26        0.471   0.580   8.462   9.513
   27        0.472   0.579   8.462   9.513
   28        0.472   0.580   8.462   9.513
   29        0.471   0.577   8.461   9.509
   30        0.471   0.576   8.461   9.508
   31        0.472   0.580   8.461   9.513
   32        1.109   1.395   0.150   2.653
   33        1.109   1.395   0.150   2.653
   34        1.108   1.383   0.150   2.641
   35        1.108   1.383   0.150   2.641
   36        1.109   1.387   0.150   2.646
   37        1.109   1.387   0.150   2.646
   38        1.109   1.395   0.150   2.653
   39        1.109   1.395   0.150   2.653
   40        1.109   1.395   0.150   2.653
   41        1.109   1.394   0.150   2.653
   42        1.109   1.394   0.150   2.652
   43        1.109   1.394   0.150   2.653
   44        1.109   1.394   0.150   2.653
   45        1.109   1.395   0.149   2.653
   46        1.108   1.383   0.150   2.642
   47        1.109   1.394   0.150   2.653
   48        0.342   0.412   6.302   7.056
--------------------------------------------------
tot         29.670  36.714 220.577 286.961
 


 magnetization (x)
 
# of ion       s       p       d       tot
------------------------------------------
    1        0.017   0.010   2.869   2.897
    2        0.017   0.010   2.869   2.897
    3        0.018   0.012   2.874   2.903
    4        0.018   0.012   2.874   2.903
    5        0.017   0.010   2.863   2.890
    6        0.017   0.010   2.863   2.890
    7        0.017   0.010   2.865   2.893
    8        0.017   0.010   2.865   2.893
    9        0.017   0.010   2.870   2.897
   10        0.017   0.010   2.867   2.894
   11        0.016   0.011   2.852   2.879
   12        0.017   0.011   2.868   2.896
   13        0.017   0.010   2.873   2.900
   14        0.017   0.011   2.868   2.897
   15        0.018   0.011   2.858   2.887
   16       -0.019  -0.042   0.162   0.101
   17       -0.019  -0.042   0.162   0.101
   18       -0.018  -0.040   0.144   0.086
   19       -0.018  -0.040   0.144   0.086
   20       -0.018  -0.040   0.158   0.100
   21       -0.018  -0.040   0.158   0.100
   22       -0.019  -0.042   0.160   0.100
   23       -0.019  -0.042   0.160   0.100
   24       -0.019  -0.041   0.157   0.097
   25       -0.018  -0.040   0.158   0.100
   26       -0.019  -0.043   0.155   0.094
   27       -0.018  -0.041   0.161   0.102
   28       -0.019  -0.042   0.158   0.097
   29       -0.018  -0.040   0.148   0.090
   30       -0.018  -0.040   0.150   0.093
   31       -0.019  -0.042   0.161   0.099
   32       -0.016  -0.110   0.003  -0.124
   33       -0.016  -0.110   0.003  -0.124
   34       -0.014  -0.101   0.001  -0.115
   35       -0.014  -0.101   0.001  -0.115
   36       -0.015  -0.103   0.002  -0.116
   37       -0.015  -0.103   0.002  -0.116
   38       -0.016  -0.110   0.003  -0.124
   39       -0.016  -0.110   0.003  -0.124
   40       -0.016  -0.111   0.003  -0.124
   41       -0.016  -0.110   0.003  -0.123
   42       -0.016  -0.109   0.003  -0.123
   43       -0.017  -0.110   0.003  -0.124
   44       -0.016  -0.111   0.003  -0.124
   45       -0.017  -0.110   0.003  -0.124
   46       -0.014  -0.102   0.000  -0.115
   47       -0.017  -0.111   0.003  -0.125
   48        0.009  -0.003   2.144   2.150
--------------------------------------------------
tot         -0.280  -2.222  47.674  45.172
 

 total amount of memory used by VASP MPI-rank0   529396. kBytes
=======================================================================

   base      :      30000. kBytes
   nonl-proj :      78428. kBytes
   fftplans  :       3576. kBytes
   grid      :      10028. kBytes
   one-center:        248. kBytes
   wavefun   :     407116. kBytes
 
  
  
 General timing and accounting informations for this job:
 ========================================================
  
                  Total CPU time used (sec):    12316.864
                            User time (sec):    12191.544
                          System time (sec):      125.321
                         Elapsed time (sec):    12372.408
  
                   Maximum memory used (kb):      764836.
                   Average memory used (kb):           0.
  
                          Minor page faults:        71951
                          Major page faults:          631
                 Voluntary context switches:         7025
