 running on   24 total cores
 distrk:  each k-point on   24 cores,    1 groups
 distr:  one band on    6 cores,    4 groups
 using from now: INCAR     
 vasp.6.1.1 19Jun20 (build Nov 30 2020 11:51:22) complex                        
  
 POSCAR found type information on POSCAR NiGeMnFe
 POSCAR found :  4 types and      48 ions
 scaLAPACK will be used
 -----------------------------------------------------------------------------
|                                                                             |
|               ----> ADVICE to this user running VASP <----                  |
|                                                                             |
|     You have a (more or less) 'large supercell' and for larger cells it     |
|     might be more efficient to use real-space projection operators.         |
|     Therefore, try LREAL= Auto in the INCAR file.                           |
|     Mind: For very accurate calculation, you might also keep the            |
|     reciprocal projection scheme (i.e. LREAL=.FALSE.).                      |
|                                                                             |
 -----------------------------------------------------------------------------

 LDA part: xc-table for Pade appr. of Perdew
 POSCAR, INCAR and KPOINTS ok, starting setup
 FFT: planning ...
 WAVECAR not read
 entering main loop
       N       E                     dE             d eps       ncg     rms          rms(c)
DAV:   1     0.275705365592E+04    0.27571E+04   -0.10940E+05 99376   0.103E+03
DAV:   2     0.156458786856E+03   -0.26006E+04   -0.23221E+04 99360   0.262E+02
DAV:   3    -0.267076220824E+03   -0.42354E+03   -0.34788E+03 99496   0.121E+02
DAV:   4    -0.297216364242E+03   -0.30140E+02   -0.28798E+02122096   0.381E+01
DAV:   5    -0.297997602287E+03   -0.78124E+00   -0.77933E+00120520   0.640E+00    0.981E+01
DAV:   6    -0.386121187354E+03   -0.88124E+02   -0.24072E+02126344   0.106E+02    0.115E+02
DAV:   7    -0.310997744517E+03    0.75123E+02   -0.17814E+02122704   0.856E+01    0.659E+01
DAV:   8    -0.337670852192E+03   -0.26673E+02   -0.46082E+01141880   0.445E+01    0.866E+01
DAV:   9    -0.320022402913E+03    0.17648E+02   -0.34898E+01140600   0.342E+01    0.436E+01
DAV:  10    -0.322467072905E+03   -0.24447E+01   -0.29397E+01127280   0.484E+01    0.631E+01
DAV:  11    -0.305571652838E+03    0.16895E+02   -0.12012E+01157344   0.370E+01    0.231E+01
DAV:  12    -0.313110422732E+03   -0.75388E+01   -0.10387E+01143448   0.193E+01    0.282E+01
DAV:  13    -0.310392067761E+03    0.27184E+01   -0.42031E+00136384   0.208E+01    0.129E+01
DAV:  14    -0.314151778986E+03   -0.37597E+01   -0.50455E+00155168   0.169E+01    0.247E+01
DAV:  15    -0.312289448180E+03    0.18623E+01   -0.34997E+00141576   0.143E+01    0.714E+00
DAV:  16    -0.312441606406E+03   -0.15216E+00   -0.86661E-01153008   0.419E+00    0.561E+00
DAV:  17    -0.312444686189E+03   -0.30798E-02   -0.18142E-01126544   0.307E+00    0.477E+00
DAV:  18    -0.312499326857E+03   -0.54641E-01   -0.65656E-02137568   0.128E+00    0.425E+00
DAV:  19    -0.312553930091E+03   -0.54603E-01   -0.35338E-02141848   0.143E+00    0.412E+00
DAV:  20    -0.312585730137E+03   -0.31800E-01   -0.21730E-02153040   0.134E+00    0.356E+00
DAV:  21    -0.312733243861E+03   -0.14751E+00   -0.54244E-01148360   0.440E+00    0.457E+00
DAV:  22    -0.312720961468E+03    0.12282E-01   -0.13049E-01167864   0.331E+00    0.391E+00
DAV:  23    -0.312703688919E+03    0.17273E-01   -0.72548E-02136400   0.239E+00    0.126E+00
DAV:  24    -0.312705348113E+03   -0.16592E-02   -0.14609E-02171184   0.642E-01    0.845E-01
DAV:  25    -0.312706819906E+03   -0.14718E-02   -0.48677E-03131264   0.610E-01    0.701E-01
DAV:  26    -0.312706910824E+03   -0.90918E-04   -0.35135E-03158136   0.590E-01    0.730E-01
DAV:  27    -0.312707431893E+03   -0.52107E-03   -0.24311E-03149904   0.360E-01    0.631E-01
DAV:  28    -0.312707645733E+03   -0.21384E-03   -0.13298E-03132792   0.339E-01    0.386E-01
DAV:  29    -0.312708348453E+03   -0.70272E-03   -0.62669E-04162168   0.170E-01    0.220E-01
DAV:  30    -0.312708563550E+03   -0.21510E-03   -0.71740E-04158272   0.167E-01    0.578E-02
DAV:  31    -0.312708597172E+03   -0.33622E-04   -0.29539E-04129432   0.500E-02    0.420E-02
DAV:  32    -0.312708595098E+03    0.20739E-05   -0.19740E-05122264   0.231E-02    0.239E-02
DAV:  33    -0.312708595076E+03    0.22104E-07   -0.70597E-06100424   0.125E-02
   1 F= -.31270860E+03 E0= -.31269775E+03  d E =-.325249E-01  mag=    50.2364
