 vasp.6.1.1 19Jun20 (build Nov 30 2020 11:51:22) complex                        
  
 executed on             LinuxIFC date 2021.03.25  22:26:44
 running on   24 total cores
 distrk:  each k-point on   24 cores,    1 groups
 distr:  one band on NCORE=   6 cores,    4 groups


--------------------------------------------------------------------------------------------------------


 INCAR:
 POTCAR:    PAW_PBE Ni 02Aug2007                  
 POTCAR:    PAW_PBE Ge 05Jan2001                  
 POTCAR:    PAW_PBE Mn 06Sep2000                  
 POTCAR:    PAW_PBE Fe 06Sep2000                  
 POTCAR:    PAW_PBE Ni 02Aug2007                  
   SHA256 =  0534bc51ca8003dfef23f56753fef9fdd3e22eac8d719fccacb59f3e6b7a69c7 Ni/POTCAR             
   COPYR  = (c) Copyright 02Aug2007 Georg Kresse                                                    
   COPYR  = This file is part of the software VASP. Any use, copying, and all other rights are regul
   COPYR  = If you do not have a valid VASP license, you may not use, copy or distribute this file. 
   VRHFIN =Ni:                                                                                      
   LEXCH  = PE                                                                                      
   EATOM  =  1077.6739 eV,   79.2068 Ry                                                             
                                                                                                    
   TITEL  = PAW_PBE Ni 02Aug2007                                                                    
   LULTRA =        F    use ultrasoft PP ?                                                          
   IUNSCR =        1    unscreen: 0-lin 1-nonlin 2-no                                               
   RPACOR =    2.000    partial core radius                                                         
   POMASS =   58.690; ZVAL   =   10.000    mass and valenz                                          
   RCORE  =    2.300    outmost cutoff radius                                                       
   RWIGS  =    2.430; RWIGS  =    1.286    wigner-seitz radius (au A)                               
   ENMAX  =  269.532; ENMIN  =  202.149 eV                                                          
   RCLOC  =    1.201    cutoff for local pot                                                        
   LCOR   =        T    correct aug charges                                                         
   LPAW   =        T    paw PP                                                                      
   EAUG   =  544.565                                                                                
   DEXC   =    0.000                                                                                
   RMAX   =    2.357    core radius for proj-oper                                                   
   RAUG   =    1.300    factor for augmentation sphere                                              
   RDEP   =    2.390    radius for radial grids                                                     
   RDEPT  =    1.838    core radius for aug-charge                                                  
                                                                                                    
   Atomic configuration                                                                             
    9 entries                                                                                       
     n  l   j            E        occ.                                                              
     1  0  0.50     -8206.4253   2.0000                                                             
     2  0  0.50      -976.1748   2.0000                                                             
     2  1  1.50      -839.0571   6.0000                                                             
     3  0  0.50      -105.9991   2.0000                                                             
     3  1  1.50       -66.4603   6.0000                                                             
     3  2  2.50        -4.6458   9.0000                                                             
     4  0  0.50        -4.4926   1.0000                                                             
     4  1  1.50        -4.0817   0.0000                                                             
     4  3  2.50        -1.3606   0.0000                                                             
   Description                                                                                      
     l       E           TYP  RCUT    TYP  RCUT                                                     
     2     -4.6457903     23  2.300                                                                 
     2     -6.0063729     23  2.300                                                                 
     0     -4.4925590     23  2.300                                                                 
     0      5.0102601     23  2.300                                                                 
     1     -2.7211652     23  2.300                                                                 
     1     16.5183231     23  2.300                                                                 
  local pseudopotential read in
  partial core-charges read in
  partial kinetic energy density read in
  atomic valenz-charges read in
  non local Contribution for L=           2  read in
    real space projection operators read in
  non local Contribution for L=           2  read in
    real space projection operators read in
  non local Contribution for L=           0  read in
    real space projection operators read in
  non local Contribution for L=           0  read in
    real space projection operators read in
  non local Contribution for L=           1  read in
    real space projection operators read in
  non local Contribution for L=           1  read in
    real space projection operators read in
    PAW grid and wavefunctions read in
 
   number of l-projection  operators is LMAX  =           6
   number of lm-projection operators is LMMAX =          18
 
 POTCAR:    PAW_PBE Ge 05Jan2001                  
   SHA256 =  7ff11deedcda39f1950abeda971a84a1f98a719a97bc9679a0df455c008734f8 Ge/POTCAR             
   COPYR  = (c) Copyright 05Jan2001 Georg Kresse                                                    
   COPYR  = This file is part of the software VASP. Any use, copying, and all other rights are regul
   COPYR  = If you do not have a valid VASP license, you may not use, copy or distribute this file. 
   VRHFIN =Ge: s2p2                                                                                 
   LEXCH  = PE                                                                                      
   EATOM  =   104.9960 eV,    7.7170 Ry                                                             
                                                                                                    
   TITEL  = PAW_PBE Ge 05Jan2001                                                                    
   LULTRA =        F    use ultrasoft PP ?                                                          
   IUNSCR =        1    unscreen: 0-lin 1-nonlin 2-no                                               
   RPACOR =    2.170    partial core radius                                                         
   POMASS =   72.610; ZVAL   =    4.000    mass and valenz                                          
   RCORE  =    2.300    outmost cutoff radius                                                       
   RWIGS  =    2.300; RWIGS  =    1.217    wigner-seitz radius (au A)                               
   ENMAX  =  173.807; ENMIN  =  130.355 eV                                                          
   ICORE  =        3    local potential                                                             
   LCOR   =        T    correct aug charges                                                         
   LPAW   =        T    paw PP                                                                      
   EAUG   =  385.843                                                                                
   DEXC   =    0.000                                                                                
   RMAX   =    2.342    core radius for proj-oper                                                   
   RAUG   =    1.300    factor for augmentation sphere                                              
   RDEP   =    2.318    radius for radial grids                                                     
   RDEPT  =    2.103    core radius for aug-charge                                                  
                                                                                                    
   Atomic configuration                                                                             
   10 entries                                                                                       
     n  l   j            E        occ.                                                              
     1  0  0.50    -10959.8463   2.0000                                                             
     2  0  0.50     -1371.6056   2.0000                                                             
     2  1  1.50     -1198.4791   6.0000                                                             
     3  0  0.50      -168.4733   2.0000                                                             
     3  1  1.50      -115.6019   6.0000                                                             
     3  2  2.50       -29.3106  10.0000                                                             
     4  0  0.50       -11.7309   2.0000                                                             
     4  1  0.50        -3.8952   2.0000                                                             
     4  2  1.50        -4.0817   0.0000                                                             
     4  3  2.50        -4.0817   0.0000                                                             
   Description                                                                                      
     l       E           TYP  RCUT    TYP  RCUT                                                     
     0    -11.7309493     23  2.300                                                                 
     0     -7.4578696     23  2.300                                                                 
     1     -3.8952261     23  2.300                                                                 
     1      6.1178114     23  2.300                                                                 
     2     -4.0817478     23  2.300                                                                 
     3     -1.3605826      7  2.300                                                                 
  local pseudopotential read in
  partial core-charges read in
  partial kinetic energy density read in
  atomic valenz-charges read in
  non local Contribution for L=           0  read in
    real space projection operators read in
  non local Contribution for L=           0  read in
    real space projection operators read in
  non local Contribution for L=           1  read in
    real space projection operators read in
  non local Contribution for L=           1  read in
    real space projection operators read in
  non local Contribution for L=           2  read in
    real space projection operators read in
    PAW grid and wavefunctions read in
 
   number of l-projection  operators is LMAX  =           5
   number of lm-projection operators is LMMAX =          13
 
 POTCAR:    PAW_PBE Mn 06Sep2000                  
   SHA256 =  791c87526310ff945dc83749a51ee60ee299d345ff72743aeb14609b9ed68bfc Mn/POTCAR             
   COPYR  = (c) Copyright 06Sep2000 Georg Kresse                                                    
   COPYR  = This file is part of the software VASP. Any use, copying, and all other rights are regul
   COPYR  = If you do not have a valid VASP license, you may not use, copy or distribute this file. 
   VRHFIN =Mn: d6 s1                                                                                
   LEXCH  = PE                                                                                      
   EATOM  =   416.7541 eV,   30.6306 Ry                                                             
                                                                                                    
   TITEL  = PAW_PBE Mn 06Sep2000                                                                    
   LULTRA =        F    use ultrasoft PP ?                                                          
   IUNSCR =        1    unscreen: 0-lin 1-nonlin 2-no                                               
   RPACOR =    2.000    partial core radius                                                         
   POMASS =   54.938; ZVAL   =    7.000    mass and valenz                                          
   RCORE  =    2.300    outmost cutoff radius                                                       
   RWIGS  =    2.500; RWIGS  =    1.323    wigner-seitz radius (au A)                               
   ENMAX  =  269.864; ENMIN  =  202.398 eV                                                          
   RCLOC  =    1.725    cutoff for local pot                                                        
   LCOR   =        T    correct aug charges                                                         
   LPAW   =        T    paw PP                                                                      
   EAUG   =  500.711                                                                                
   DEXC   =    0.000                                                                                
   RMAX   =    2.343    core radius for proj-oper                                                   
   RAUG   =    1.300    factor for augmentation sphere                                              
   RDEP   =    2.338    radius for radial grids                                                     
   RDEPT  =    1.911    core radius for aug-charge                                                  
                                                                                                    
   Atomic configuration                                                                             
    9 entries                                                                                       
     n  l   j            E        occ.                                                              
     1  0  0.50     -6424.8288   2.0000                                                             
     2  0  0.50      -739.1154   2.0000                                                             
     2  1  1.50      -625.3949   6.0000                                                             
     3  0  0.50       -81.6100   2.0000                                                             
     3  1  1.50       -50.4667   6.0000                                                             
     3  2  2.50        -3.3745   6.0000                                                             
     4  0  0.50        -4.1331   1.0000                                                             
     4  1  0.50        -4.0817   0.0000                                                             
     4  3  2.50        -1.3606   0.0000                                                             
   Description                                                                                      
     l       E           TYP  RCUT    TYP  RCUT                                                     
     2     -3.3744664     23  2.300                                                                 
     2     -4.7350490     23  2.300                                                                 
     0     -4.1331408     23  2.300                                                                 
     0      7.6656614     23  2.300                                                                 
     1     -2.7211652     23  2.300                                                                 
     1     20.4087390     23  2.300                                                                 
  local pseudopotential read in
  partial core-charges read in
  partial kinetic energy density read in
  atomic valenz-charges read in
  non local Contribution for L=           2  read in
    real space projection operators read in
  non local Contribution for L=           2  read in
    real space projection operators read in
  non local Contribution for L=           0  read in
    real space projection operators read in
  non local Contribution for L=           0  read in
    real space projection operators read in
  non local Contribution for L=           1  read in
    real space projection operators read in
  non local Contribution for L=           1  read in
    real space projection operators read in
    PAW grid and wavefunctions read in
 
   number of l-projection  operators is LMAX  =           6
   number of lm-projection operators is LMMAX =          18
 
 POTCAR:    PAW_PBE Fe 06Sep2000                  
   SHA256 =  cd5a22d9368cc8b5cc476bea79732366149640da08ac9009b0e1b7fc627eea28 Fe/POTCAR             
   COPYR  = (c) Copyright 06Sep2000 Georg Kresse                                                    
   COPYR  = This file is part of the software VASP. Any use, copying, and all other rights are regul
   COPYR  = If you do not have a valid VASP license, you may not use, copy or distribute this file. 
   VRHFIN =Fe:  d7 s1                                                                               
   LEXCH  = PE                                                                                      
   EATOM  =   594.3153 eV,   43.6809 Ry                                                             
                                                                                                    
   TITEL  = PAW_PBE Fe 06Sep2000                                                                    
   LULTRA =        F    use ultrasoft PP ?                                                          
   IUNSCR =        1    unscreen: 0-lin 1-nonlin 2-no                                               
   RPACOR =    2.000    partial core radius                                                         
   POMASS =   55.847; ZVAL   =    8.000    mass and valenz                                          
   RCORE  =    2.300    outmost cutoff radius                                                       
   RWIGS  =    2.460; RWIGS  =    1.302    wigner-seitz radius (au A)                               
   ENMAX  =  267.882; ENMIN  =  200.911 eV                                                          
   RCLOC  =    1.701    cutoff for local pot                                                        
   LCOR   =        T    correct aug charges                                                         
   LPAW   =        T    paw PP                                                                      
   EAUG   =  511.368                                                                                
   DEXC   =    0.000                                                                                
   RMAX   =    2.356    core radius for proj-oper                                                   
   RAUG   =    1.300    factor for augmentation sphere                                              
   RDEP   =    2.442    radius for radial grids                                                     
   RDEPT  =    1.890    core radius for aug-charge                                                  
                                                                                                    
   Atomic configuration                                                                             
    9 entries                                                                                       
     n  l   j            E        occ.                                                              
     1  0  0.50     -6993.8440   2.0000                                                             
     2  0  0.50      -814.6047   2.0000                                                             
     2  1  1.50      -693.3689   6.0000                                                             
     3  0  0.50       -89.4732   2.0000                                                             
     3  1  1.50       -55.6373   6.0000                                                             
     3  2  2.50        -3.8151   7.0000                                                             
     4  0  0.50        -4.2551   1.0000                                                             
     4  1  1.50        -3.4015   0.0000                                                             
     4  3  2.50        -1.3606   0.0000                                                             
   Description                                                                                      
     l       E           TYP  RCUT    TYP  RCUT                                                     
     2     -3.8151135     23  2.300                                                                 
     2     -5.1756961     23  2.300                                                                 
     0     -4.2550963     23  2.300                                                                 
     0      7.2035603     23  2.300                                                                 
     1     -2.7211652     23  2.300                                                                 
     1     18.4316424     23  2.300                                                                 
  local pseudopotential read in
  partial core-charges read in
  partial kinetic energy density read in
  atomic valenz-charges read in
  non local Contribution for L=           2  read in
    real space projection operators read in
  non local Contribution for L=           2  read in
    real space projection operators read in
  non local Contribution for L=           0  read in
    real space projection operators read in
  non local Contribution for L=           0  read in
    real space projection operators read in
  non local Contribution for L=           1  read in
    real space projection operators read in
  non local Contribution for L=           1  read in
    real space projection operators read in
    PAW grid and wavefunctions read in
 
   number of l-projection  operators is LMAX  =           6
   number of lm-projection operators is LMMAX =          18
 
 -----------------------------------------------------------------------------
|                                                                             |
|               ----> ADVICE to this user running VASP <----                  |
|                                                                             |
|     You have a (more or less) 'large supercell' and for larger cells it     |
|     might be more efficient to use real-space projection operators.         |
|     Therefore, try LREAL= Auto in the INCAR file.                           |
|     Mind: For very accurate calculation, you might also keep the            |
|     reciprocal projection scheme (i.e. LREAL=.FALSE.).                      |
|                                                                             |
 -----------------------------------------------------------------------------

  PAW_PBE Ni 02Aug2007                  :
 energy of atom  1       EATOM=-1077.6739
 kinetic energy error for atom=    0.0038 (will be added to EATOM!!)
  PAW_PBE Ge 05Jan2001                  :
 energy of atom  2       EATOM= -104.9960
 kinetic energy error for atom=    0.0003 (will be added to EATOM!!)
  PAW_PBE Mn 06Sep2000                  :
 energy of atom  3       EATOM= -416.7541
 kinetic energy error for atom=    0.0033 (will be added to EATOM!!)
  PAW_PBE Fe 06Sep2000                  :
 energy of atom  4       EATOM= -594.3153
 kinetic energy error for atom=    0.0034 (will be added to EATOM!!)
 
 
 POSCAR: MnFeNiGe_hex
  positions in direct lattice
  velocities in cartesian coordinates
 exchange correlation table for  LEXCH =        8
   RHO(1)=    0.500       N(1)  =     2000
   RHO(2)=  100.500       N(2)  =     4000
 


--------------------------------------------------------------------------------------------------------


 ion  position               nearest neighbor table
   1  0.667  0.833  0.375-  27 2.39  29 2.39  23 2.39  17 2.67  26 2.67  36 2.74  45 2.74  38 2.74
                            46 2.74  43 2.74  48 2.74
   2  0.333  0.167  0.625-  28 2.39  30 2.39  24 2.39  25 2.67  18 2.67  39 2.74  44 2.74  46 2.74
                            48 2.74  37 2.74  45 2.74
   3  0.167  0.833  0.375-  25 2.39  23 2.39  29 2.39  28 2.67  19 2.67  40 2.74  47 2.74  43 2.74
                            48 2.74  38 2.74  46 2.74
   4  0.833  0.167  0.625-  26 2.39  24 2.39  30 2.39  27 2.67  20 2.67  39 2.74  44 2.74  46 2.74
                            48 2.74  47 2.74  41 2.74
   5  0.167  0.333  0.375-  29 2.39  27 2.39  25 2.39  24 2.67  21 2.67  43 2.74  48 2.74  47 2.74
                            40 2.74  36 2.74  45 2.74
   6  0.833  0.667  0.625-  30 2.39  28 2.39  26 2.39  23 2.67  22 2.67  37 2.74  41 2.74  45 2.74
                            47 2.74  44 2.74  48 2.74
   7  0.833  0.667  0.125-  31 2.39  19 2.39  17 2.39  23 2.67  22 2.67  33 2.74  35 2.74  36 2.74
                            40 2.74  42 2.74  43 2.74
   8  0.167  0.333  0.875-  18 2.39  32 2.39  20 2.39  24 2.67  21 2.67  42 2.74  44 2.74  35 2.74
                            41 2.74  37 2.74  33 2.74
   9  0.333  0.167  0.125-  19 2.39  31 2.39  21 2.39  25 2.67  18 2.67  34 2.74  38 2.74  42 2.74
                            43 2.74  36 2.74  33 2.74
  10  0.667  0.833  0.875-  20 2.39  32 2.39  22 2.39  26 2.67  17 2.67  33 2.74  37 2.74  34 2.74
                            39 2.74  42 2.74  44 2.74
  11  0.833  0.167  0.125-  17 2.39  21 2.39  31 2.39  27 2.67  20 2.67  34 2.74  38 2.74  42 2.74
                            43 2.74  35 2.74  40 2.74
  12  0.167  0.833  0.875-  18 2.39  22 2.39  32 2.39  28 2.67  19 2.67  35 2.74  41 2.74  42 2.74
                            44 2.74  39 2.74  34 2.74
  13  0.333  0.667  0.125-  21 2.39  17 2.39  19 2.39  29 2.67  32 2.67  33 2.74  35 2.74  36 2.74
                            40 2.74  38 2.74  34 2.74
  14  0.667  0.333  0.875-  22 2.39  20 2.39  18 2.39  30 2.67  31 2.67  34 2.74  39 2.74  37 2.74
                            33 2.74  35 2.74  41 2.74
  15  0.667  0.333  0.375-  23 2.39  25 2.39  27 2.39  30 2.67  31 2.67  38 2.74  46 2.74  45 2.74
                            36 2.74  40 2.74  47 2.74
  16  0.333  0.667  0.625-  24 2.39  26 2.39  28 2.39  29 2.67  32 2.67  37 2.74  41 2.74  45 2.74
                            47 2.74  46 2.74  39 2.74
  17  0.667  0.833  0.125-  11 2.39  13 2.39   7 2.39   1 2.67  10 2.67  33 2.74  36 2.74  34 2.74
                            38 2.74  42 2.74  43 2.74
  18  0.333  0.167  0.875-   8 2.39  12 2.39  14 2.39   2 2.67   9 2.67  42 2.74  44 2.74  33 2.74
                            37 2.74  34 2.74  39 2.74
  19  0.167  0.833  0.125-   9 2.39   7 2.39  13 2.39  12 2.67   3 2.67  35 2.74  40 2.74  42 2.74
                            43 2.74  38 2.74  34 2.74
  20  0.833  0.167  0.875-  10 2.39   8 2.39  14 2.39  11 2.67   4 2.67  34 2.74  39 2.74  42 2.74
                            44 2.74  35 2.74  41 2.74
  21  0.167  0.333  0.125-  13 2.39  11 2.39   9 2.39   8 2.67   5 2.67  42 2.74  43 2.74  35 2.74
                            40 2.74  36 2.74  33 2.74
  22  0.833  0.667  0.875-  14 2.39  12 2.39  10 2.39   7 2.67   6 2.67  33 2.74  35 2.74  37 2.74
                            41 2.74  42 2.74  44 2.74
  23  0.833  0.667  0.375-  15 2.39   3 2.39   1 2.39   7 2.67   6 2.67  36 2.74  40 2.74  45 2.74
                            47 2.74  43 2.74  48 2.74
  24  0.167  0.333  0.625-  16 2.39   4 2.39   2 2.39   8 2.67   5 2.67  44 2.74  48 2.74  47 2.74
                            41 2.74  37 2.74  45 2.74
  25  0.333  0.167  0.375-   3 2.39  15 2.39   5 2.39   9 2.67   2 2.67  38 2.74  43 2.74  46 2.74
                            48 2.74  36 2.74  45 2.74
  26  0.667  0.833  0.625-   4 2.39  16 2.39   6 2.39  10 2.67   1 2.67  37 2.74  45 2.74  39 2.74
                            46 2.74  44 2.74  48 2.74
  27  0.833  0.167  0.375-   1 2.39   5 2.39  15 2.39  11 2.67   4 2.67  38 2.74  43 2.74  46 2.74
                            48 2.74  47 2.74  40 2.74
  28  0.167  0.833  0.625-   2 2.39   6 2.39  16 2.39  12 2.67   3 2.67  41 2.74  47 2.74  44 2.74
                            48 2.74  39 2.74  46 2.74
  29  0.333  0.667  0.375-   5 2.39   1 2.39   3 2.39  13 2.67  16 2.67  36 2.74  40 2.74  45 2.74
                            47 2.74  46 2.74  38 2.74
  30  0.667  0.333  0.625-   6 2.39   2 2.39   4 2.39  14 2.67  15 2.67  39 2.74  46 2.74  45 2.74
                            37 2.74  41 2.74  47 2.74
  31  0.667  0.333  0.125-   7 2.39   9 2.39  11 2.39  14 2.67  15 2.67  34 2.74  38 2.74  36 2.74
                            33 2.74  35 2.74  40 2.74
  32  0.333  0.667  0.875-   8 2.39  10 2.39  12 2.39  13 2.67  16 2.67  33 2.74  35 2.74  37 2.74
                            41 2.74  39 2.74  34 2.74
  33  0.500  0.500  0.000-  36 2.67  37 2.67  10 2.74  17 2.74   7 2.74  22 2.74  31 2.74  32 2.74
                            13 2.74  14 2.74   9 2.74  18 2.74  21 2.74   8 2.74
  34  0.500  0.000  0.000-  38 2.67  39 2.67  14 2.74  31 2.74  17 2.74  20 2.74  10 2.74  11 2.74
                             9 2.74  13 2.74  32 2.74  19 2.74  12 2.74  18 2.74
  35  0.000  0.500  0.000-  40 2.67  41 2.67  12 2.74  19 2.74   8 2.74  21 2.74  22 2.74  32 2.74
                             7 2.74  13 2.74  20 2.74  11 2.74  31 2.74  14 2.74
  36  0.500  0.500  0.250-  33 2.67  45 2.67   1 2.74  17 2.74   7 2.74  23 2.74  29 2.74  31 2.74
                            13 2.74  15 2.74   9 2.74  25 2.74   5 2.74  21 2.74
  37  0.500  0.500  0.750-  33 2.67  45 2.67  10 2.74  26 2.74  22 2.74   6 2.74  30 2.74  32 2.74
                            14 2.74  16 2.74   2 2.74  18 2.74  24 2.74   8 2.74
  38  0.500  0.000  0.250-  34 2.67  46 2.67  15 2.74  31 2.74  17 2.74  25 2.74  27 2.74   9 2.74
                            11 2.74   1 2.74  29 2.74  13 2.74   3 2.74  19 2.74
  39  0.500  0.000  0.750-  34 2.67  46 2.67  14 2.74  30 2.74  20 2.74  26 2.74   4 2.74  10 2.74
                             2 2.74  16 2.74  32 2.74  12 2.74  28 2.74  18 2.74
  40  0.000  0.500  0.250-  35 2.67  47 2.67   3 2.74  19 2.74   5 2.74  21 2.74  23 2.74  29 2.74
                             7 2.74  13 2.74  27 2.74  11 2.74  15 2.74  31 2.74
  41  0.000  0.500  0.750-  35 2.67  47 2.67  12 2.74  28 2.74  22 2.74  24 2.74   8 2.74  32 2.74
                             6 2.74  16 2.74   4 2.74  20 2.74  30 2.74  14 2.74
  42  0.000  0.000  0.000-  43 2.67  44 2.67  18 2.74   8 2.74  21 2.74  19 2.74  20 2.74  11 2.74
                            12 2.74   9 2.74   7 2.74  22 2.74  17 2.74  10 2.74
  43  0.000  0.000  0.250-  42 2.67  48 2.67   5 2.74  21 2.74  19 2.74   3 2.74  25 2.74  27 2.74
                             9 2.74  11 2.74   7 2.74  23 2.74  17 2.74   1 2.74
  44  0.000  0.000  0.750-  42 2.67  48 2.67  18 2.74   8 2.74  24 2.74  20 2.74   2 2.74  28 2.74
                            12 2.74   4 2.74   6 2.74  22 2.74  26 2.74  10 2.74
  45  0.500  0.500  0.500-  36 2.67  37 2.67   1 2.74  26 2.74  23 2.74   6 2.74  29 2.74  30 2.74
                            15 2.74  16 2.74  25 2.74   2 2.74   5 2.74  24 2.74
  46  0.500  0.000  0.500-  38 2.67  39 2.67  15 2.74  30 2.74  25 2.74  26 2.74  27 2.74   2 2.74
                             4 2.74   1 2.74  29 2.74  16 2.74   3 2.74  28 2.74
  47  0.000  0.500  0.500-  40 2.67  41 2.67   3 2.74  28 2.74  23 2.74  24 2.74   5 2.74  29 2.74
                             6 2.74  16 2.74   4 2.74  27 2.74  15 2.74  30 2.74
  48  0.000  0.000  0.500-  43 2.67  44 2.67   5 2.74  24 2.74   3 2.74  25 2.74  27 2.74  28 2.74
                             4 2.74   2 2.74   6 2.74  23 2.74   1 2.74  26 2.74
 
  LATTYP: Found a hexagonal cell.
 ALAT       =     8.2957166075
 C/A-ratio  =     1.2850434344
  
  Lattice vectors:
  
 A1 = (   8.2957166075,   0.0000000000,   0.0000000000)
 A2 = (  -4.1478583038,   7.1843013247,   0.0000000000)
 A3 = (   0.0000000000,   0.0000000000,  10.6603561598)


Analysis of symmetry for initial positions (statically):
=====================================================================
 Subroutine PRICEL returns:
 Original cell was already a primitive cell.
 

 Routine SETGRP: Setting up the symmetry group for a 
 hexagonal supercell.


 Subroutine GETGRP returns: Found 12 space group operations
 (whereof 12 operations were pure point group operations)
 out of a pool of 24 trial point group operations.


The static configuration has the point symmetry D_3d.


Analysis of symmetry for dynamics (positions and initial velocities):
=====================================================================
 Subroutine PRICEL returns:
 Original cell was already a primitive cell.
 

 Routine SETGRP: Setting up the symmetry group for a 
 hexagonal supercell.


 Subroutine GETGRP returns: Found 12 space group operations
 (whereof 12 operations were pure point group operations)
 out of a pool of 24 trial point group operations.


The dynamic configuration has the point symmetry D_3d.


Analysis of structural, dynamic, and magnetic symmetry:
=====================================================================
 Subroutine PRICEL returns:
 Original cell was already a primitive cell.
 

 Routine SETGRP: Setting up the symmetry group for a 
 hexagonal supercell.


 Subroutine GETGRP returns: Found 12 space group operations
 (whereof 12 operations were pure point group operations)
 out of a pool of 24 trial point group operations.


The magnetic configuration has the point symmetry D_3d.


 Subroutine INISYM returns: Found 12 space group operations
 (whereof 12 operations are pure point group operations),
 and found     1 'primitive' translations


----------------------------------------------------------------------------------------

                                     Primitive cell                                     

  volume of cell :     635.3458

  direct lattice vectors                    reciprocal lattice vectors
     8.295716608  0.000000000  0.000000000     0.120544137  0.069596190  0.000000000
    -4.147858304  7.184301325  0.000000000     0.000000000  0.139192380  0.000000000
     0.000000000  0.000000000 10.660356160     0.000000000  0.000000000  0.093805496

  length of vectors
     8.295716608  8.295716607 10.660356160     0.139192380  0.139192380  0.093805496

  position of ions in fractional coordinates (direct lattice)
     0.666666666  0.833333333  0.375000000
     0.333333333  0.166666666  0.625000000
     0.166666666  0.833333333  0.375000000
     0.833333333  0.166666666  0.625000000
     0.166666666  0.333333333  0.375000000
     0.833333333  0.666666666  0.625000000
     0.833333333  0.666666666  0.125000000
     0.166666666  0.333333333  0.875000000
     0.333333333  0.166666666  0.125000000
     0.666666666  0.833333333  0.875000000
     0.833333333  0.166666666  0.125000000
     0.166666666  0.833333333  0.875000000
     0.333333333  0.666666666  0.125000000
     0.666666666  0.333333333  0.875000000
     0.666666666  0.333333333  0.375000000
     0.333333333  0.666666666  0.625000000
     0.666666666  0.833333333  0.125000000
     0.333333313  0.166666666  0.875000000
     0.166666666  0.833333333  0.125000000
     0.833333333  0.166666666  0.875000000
     0.166666666  0.333333333  0.125000000
     0.833333333  0.666666666  0.875000000
     0.833333333  0.666666666  0.375000000
     0.166666666  0.333333333  0.625000000
     0.333333333  0.166666666  0.375000000
     0.666666666  0.833333333  0.625000000
     0.833333333  0.166666666  0.375000000
     0.166666666  0.833333333  0.625000000
     0.333333333  0.666666666  0.375000000
     0.666666666  0.333333333  0.625000000
     0.666666666  0.333333333  0.125000000
     0.333333333  0.666666666  0.875000000
     0.500000000  0.500000000  0.000000000
     0.500000000  0.000000000  0.000000000
     0.000000000  0.500000000  0.000000000
     0.500000000  0.500000000  0.250000000
     0.500000000  0.500000000  0.750000000
     0.500000000  0.000000000  0.250000000
     0.500000000  0.000000000  0.750000000
     0.000000000  0.500000000  0.250000000
     0.000000000  0.500000000  0.750000000
     0.000000000  0.000000000  0.000000000
     0.000000000  0.000000000  0.250000000
     0.000000000  0.000000000  0.750000000
     0.500000000  0.500000000  0.500000000
     0.500000000  0.000000000  0.500000000
     0.000000000  0.500000000  0.500000000
     0.000000000  0.000000000  0.500000000

  ion indices of the primitive-cell ions
   primitive index   ion index
                 1           1
                 2           2
                 3           3
                 4           4
                 5           5
                 6           6
                 7           7
                 8           8
                 9           9
                10          10
                11          11
                12          12
                13          13
                14          14
                15          15
                16          16
                17          17
                18          18
                19          19
                20          20
                21          21
                22          22
                23          23
                24          24
                25          25
                26          26
                27          27
                28          28
                29          29
                30          30
                31          31
                32          32
                33          33
                34          34
                35          35
                36          36
                37          37
                38          38
                39          39
                40          40
                41          41
                42          42
                43          43
                44          44
                45          45
                46          46
                47          47
                48          48

----------------------------------------------------------------------------------------

 
 
 KPOINTS: Auto                                    

Automatic generation of k-mesh.
Space group operators:
 irot       det(A)        alpha          n_x          n_y          n_z        tau_x        tau_y        tau_z
    1     1.000000     0.000000     1.000000     0.000000     0.000000     0.000000     0.000000     0.000000
    2    -1.000000     0.000000     1.000000     0.000000     0.000000     0.000000     0.000000     0.000000
    3     1.000000   120.000000     0.000000     0.000000    -1.000000     0.000000     0.000000     0.000000
    4    -1.000000   120.000000     0.000000     0.000000    -1.000000     0.000000     0.000000     0.000000
    5     1.000000   120.000000     0.000000     0.000000     1.000000     0.000000     0.000000     0.000000
    6    -1.000000   120.000000     0.000000     0.000000     1.000000     0.000000     0.000000     0.000000
    7     1.000000   179.999999     1.000000     0.000000     0.000000     0.000000     0.000000     0.000000
    8    -1.000000   179.999999     1.000000     0.000000     0.000000     0.000000     0.000000     0.000000
    9     1.000000   180.000000     0.500000    -0.866025     0.000000     0.000000     0.000000     0.000000
   10    -1.000000   180.000000     0.500000    -0.866025     0.000000     0.000000     0.000000     0.000000
   11     1.000000   180.000000    -0.500000    -0.866025     0.000000     0.000000     0.000000     0.000000
   12    -1.000000   180.000000    -0.500000    -0.866025     0.000000     0.000000     0.000000     0.000000
 
 Subroutine IBZKPT returns following result:
 ===========================================
 
 Found     69 irreducible k-points:
 
 Following reciprocal coordinates:
            Coordinates               Weight
  0.000000  0.000000  0.000000      1.000000
  0.111111  0.000000  0.000000      6.000000
  0.222222 -0.000000  0.000000      6.000000
  0.333333  0.000000  0.000000      6.000000
  0.444444 -0.000000  0.000000      6.000000
  0.111111  0.111111  0.000000      6.000000
  0.222222  0.111111  0.000000     12.000000
  0.333333  0.111111  0.000000     12.000000
  0.444444  0.111111  0.000000      6.000000
  0.222222  0.222222  0.000000      6.000000
  0.333333  0.222222  0.000000     12.000000
  0.333333  0.333333  0.000000      2.000000
  0.000000  0.000000  0.142857      2.000000
  0.111111  0.000000  0.142857      6.000000
  0.111111 -0.111111  0.142857      6.000000
  0.222222 -0.000000  0.142857      6.000000
  0.222222 -0.222222  0.142857      6.000000
  0.333333  0.000000  0.142857      6.000000
  0.333333 -0.333333  0.142857      6.000000
  0.444444 -0.000000  0.142857      6.000000
  0.444444 -0.444444  0.142857      6.000000
  0.111111  0.111111  0.142857     12.000000
  0.222222  0.111111  0.142857     12.000000
  0.333333 -0.222222  0.142857     12.000000
  0.333333  0.111111  0.142857     12.000000
  0.444444 -0.333333  0.142857     12.000000
  0.444444  0.111111  0.142857     12.000000
  0.222222  0.222222  0.142857     12.000000
  0.333333  0.222222  0.142857     12.000000
 -0.444444 -0.333333  0.142857     12.000000
  0.333333  0.333333  0.142857      4.000000
  0.000000  0.000000  0.285714      2.000000
  0.111111  0.000000  0.285714      6.000000
  0.111111 -0.111111  0.285714      6.000000
  0.222222 -0.000000  0.285714      6.000000
  0.222222 -0.222222  0.285714      6.000000
  0.333333  0.000000  0.285714      6.000000
  0.333333 -0.333333  0.285714      6.000000
  0.444444 -0.000000  0.285714      6.000000
  0.444444 -0.444444  0.285714      6.000000
  0.111111  0.111111  0.285714     12.000000
  0.222222  0.111111  0.285714     12.000000
  0.333333 -0.222222  0.285714     12.000000
  0.333333  0.111111  0.285714     12.000000
  0.444444 -0.333333  0.285714     12.000000
  0.444444  0.111111  0.285714     12.000000
  0.222222  0.222222  0.285714     12.000000
  0.333333  0.222222  0.285714     12.000000
 -0.444444 -0.333333  0.285714     12.000000
  0.333333  0.333333  0.285714      4.000000
  0.000000  0.000000  0.428571      2.000000
  0.111111  0.000000  0.428571      6.000000
  0.111111 -0.111111  0.428571      6.000000
  0.222222 -0.000000  0.428571      6.000000
  0.222222 -0.222222  0.428571      6.000000
  0.333333  0.000000  0.428571      6.000000
  0.333333 -0.333333  0.428571      6.000000
  0.444444 -0.000000  0.428571      6.000000
  0.444444 -0.444444  0.428571      6.000000
  0.111111  0.111111  0.428571     12.000000
  0.222222  0.111111  0.428571     12.000000
  0.333333 -0.222222  0.428571     12.000000
  0.333333  0.111111  0.428571     12.000000
  0.444444 -0.333333  0.428571     12.000000
  0.444444  0.111111  0.428571     12.000000
  0.222222  0.222222  0.428571     12.000000
  0.333333  0.222222  0.428571     12.000000
 -0.444444 -0.333333  0.428571     12.000000
  0.333333  0.333333  0.428571      4.000000
 
 Following cartesian coordinates:
            Coordinates               Weight
  0.000000  0.000000  0.000000      1.000000
  0.013595  0.007849  0.000000      6.000000
  0.027189  0.015698  0.000000      6.000000
  0.040784  0.023547  0.000000      6.000000
  0.054379  0.031396  0.000000      6.000000
  0.013595  0.023547  0.000000      6.000000
  0.027189  0.031396  0.000000     12.000000
  0.040784  0.039245  0.000000     12.000000
  0.054379  0.047093  0.000000      6.000000
  0.027189  0.047093  0.000000      6.000000
  0.040784  0.054942  0.000000     12.000000
  0.040784  0.070640  0.000000      2.000000
  0.000000  0.000000  0.013602      2.000000
  0.013595  0.007849  0.013602      6.000000
  0.013595 -0.007849  0.013602      6.000000
  0.027189  0.015698  0.013602      6.000000
  0.027189 -0.015698  0.013602      6.000000
  0.040784  0.023547  0.013602      6.000000
  0.040784 -0.023547  0.013602      6.000000
  0.054379  0.031396  0.013602      6.000000
  0.054379 -0.031396  0.013602      6.000000
  0.013595  0.023547  0.013602     12.000000
  0.027189  0.031396  0.013602     12.000000
  0.040784 -0.007849  0.013602     12.000000
  0.040784  0.039245  0.013602     12.000000
  0.054379 -0.015698  0.013602     12.000000
  0.054379  0.047093  0.013602     12.000000
  0.027189  0.047093  0.013602     12.000000
  0.040784  0.054942  0.013602     12.000000
 -0.054379 -0.078489  0.013602     12.000000
  0.040784  0.070640  0.013602      4.000000
  0.000000  0.000000  0.027204      2.000000
  0.013595  0.007849  0.027204      6.000000
  0.013595 -0.007849  0.027204      6.000000
  0.027189  0.015698  0.027204      6.000000
  0.027189 -0.015698  0.027204      6.000000
  0.040784  0.023547  0.027204      6.000000
  0.040784 -0.023547  0.027204      6.000000
  0.054379  0.031396  0.027204      6.000000
  0.054379 -0.031396  0.027204      6.000000
  0.013595  0.023547  0.027204     12.000000
  0.027189  0.031396  0.027204     12.000000
  0.040784 -0.007849  0.027204     12.000000
  0.040784  0.039245  0.027204     12.000000
  0.054379 -0.015698  0.027204     12.000000
  0.054379  0.047093  0.027204     12.000000
  0.027189  0.047093  0.027204     12.000000
  0.040784  0.054942  0.027204     12.000000
 -0.054379 -0.078489  0.027204     12.000000
  0.040784  0.070640  0.027204      4.000000
  0.000000  0.000000  0.040805      2.000000
  0.013595  0.007849  0.040805      6.000000
  0.013595 -0.007849  0.040805      6.000000
  0.027189  0.015698  0.040805      6.000000
  0.027189 -0.015698  0.040805      6.000000
  0.040784  0.023547  0.040805      6.000000
  0.040784 -0.023547  0.040805      6.000000
  0.054379  0.031396  0.040805      6.000000
  0.054379 -0.031396  0.040805      6.000000
  0.013595  0.023547  0.040805     12.000000
  0.027189  0.031396  0.040805     12.000000
  0.040784 -0.007849  0.040805     12.000000
  0.040784  0.039245  0.040805     12.000000
  0.054379 -0.015698  0.040805     12.000000
  0.054379  0.047093  0.040805     12.000000
  0.027189  0.047093  0.040805     12.000000
  0.040784  0.054942  0.040805     12.000000
 -0.054379 -0.078489  0.040805     12.000000
  0.040784  0.070640  0.040805      4.000000
 


--------------------------------------------------------------------------------------------------------




 Dimension of arrays:
   k-points           NKPTS =     69   k-points in BZ     NKDIM =     69   number of bands    NBANDS=    360
   number of dos      NEDOS =    301   number of ions     NIONS =     48
   non local maximal  LDIM  =      6   non local SUM 2l+1 LMDIM =     18
   total plane-waves  NPLWV = 288000
   max r-space proj   IRMAX =      1   max aug-charges    IRDMAX=  24833
   dimension x,y,z NGX =    60 NGY =   60 NGZ =   80
   dimension x,y,z NGXF=   120 NGYF=  120 NGZF=  160
   support grid    NGXF=   120 NGYF=  120 NGZF=  160
   ions per type =              16  16  15   1
   NGX,Y,Z   is equivalent  to a cutoff of  12.02, 12.02, 12.48 a.u.
   NGXF,Y,Z  is equivalent  to a cutoff of  24.05, 24.05, 24.95 a.u.

 SYSTEM =  MnFeNiGe_mag_hex-scf                    
 POSCAR =  MnFeNiGe_hex                            

 Startparameter for this run:
   NWRITE =      2    write-flag & timer
   PREC   = accura    normal or accurate (medium, high low for compatibility)
   ISTART =      0    job   : 0-new  1-cont  2-samecut
   ICHARG =      2    charge: 1-file 2-atom 10-const
   ISPIN  =      2    spin polarized calculation?
   LNONCOLLINEAR =      F non collinear calculations
   LSORBIT =      F    spin-orbit coupling
   INIWAV =      1    electr: 0-lowe 1-rand  2-diag
   LASPH  =      F    aspherical Exc in radial PAW
   METAGGA=      F    non-selfconsistent MetaGGA calc.

 Electronic Relaxation 1
   ENCUT  =  450.0 eV  33.07 Ry    5.75 a.u.  14.35 14.35 18.44*2*pi/ulx,y,z
   ENINI  =  450.0     initial cutoff
   ENAUG  =  544.6 eV  augmentation charge cutoff
   NELM   =     60;   NELMIN=  5; NELMDL= -5     # of ELM steps 
   EDIFF  = 0.1E-05   stopping-criterion for ELM
   LREAL  =      F    real-space projection
   NLSPLINE    = F    spline interpolate recip. space projectors
   LCOMPAT=      F    compatible to vasp.4.4
   GGA_COMPAT  = T    GGA compatible to vasp.4.4-vasp.4.6
   LMAXPAW     = -100 max onsite density
   LMAXMIX     =    2 max onsite mixed and CHGCAR
   VOSKOWN=      0    Vosko Wilk Nusair interpolation
   ROPT   =    0.00000   0.00000   0.00000   0.00000
 Ionic relaxation
   EDIFFG = 0.1E-04   stopping-criterion for IOM
   NSW    =      0    number of steps for IOM
   NBLOCK =      1;   KBLOCK =      1    inner block; outer block 
   IBRION =     -1    ionic relax: 0-MD 1-quasi-New 2-CG
   NFREE  =      0    steps in history (QN), initial steepest desc. (CG)
   ISIF   =      6    stress and relaxation
   IWAVPR =     10    prediction:  0-non 1-charg 2-wave 3-comb
   ISYM   =      2    0-nonsym 1-usesym 2-fastsym
   LCORR  =      T    Harris-Foulkes like correction to forces

   POTIM  = 0.5000    time-step for ionic-motion
   TEIN   =    0.0    initial temperature
   TEBEG  =    0.0;   TEEND  =   0.0 temperature during run
   SMASS  =  -3.00    Nose mass-parameter (am)
   estimated Nose-frequenzy (Omega)   =  0.10E-29 period in steps = 0.13E+47 mass=  -0.157E-26a.u.
   SCALEE = 1.0000    scale energy and forces
   NPACO  =    256;   APACO  = 16.0  distance and # of slots for P.C.
   PSTRESS=    0.0 pullay stress

  Mass of Ions in am
   POMASS =  58.69 72.61 54.94 55.85
  Ionic Valenz
   ZVAL   =  10.00  4.00  7.00  8.00
  Atomic Wigner-Seitz radii
   RWIGS  =  -1.00 -1.00 -1.00 -1.00
  virtual crystal weights 
   VCA    =   1.00  1.00  1.00  1.00
   NELECT =     337.0000    total number of electrons
   NUPDOWN=      -1.0000    fix difference up-down

 DOS related values:
   EMIN   =  10.00;   EMAX   =-10.00  energy-range for DOS
   EFERMI =   0.00
   ISMEAR =     1;   SIGMA  =   0.20  broadening in eV -4-tet -1-fermi 0-gaus

 Electronic relaxation 2 (details)
   IALGO  =     38    algorithm
   LDIAG  =      T    sub-space diagonalisation (order eigenvalues)
   LSUBROT=      F    optimize rotation matrix (better conditioning)
   TURBO    =      0    0=normal 1=particle mesh
   IRESTART =      0    0=no restart 2=restart with 2 vectors
   NREBOOT  =      0    no. of reboots
   NMIN     =      0    reboot dimension
   EREF     =   0.00    reference energy to select bands
   IMIX   =      4    mixing-type and parameters
     AMIX     =   0.40;   BMIX     =  1.00
     AMIX_MAG =   1.60;   BMIX_MAG =  1.00
     AMIN     =   0.10
     WC   =   100.;   INIMIX=   1;  MIXPRE=   1;  MAXMIX= -45

 Intra band minimization:
   WEIMIN = 0.0000     energy-eigenvalue tresh-hold
   EBREAK =  0.69E-09  absolut break condition
   DEPER  =   0.30     relativ break condition  

   TIME   =   0.40     timestep for ELM

  volume/ion in A,a.u.               =      13.24        89.32
  Fermi-wavevector in a.u.,A,eV,Ry     =   1.325200  2.504265 23.893938  1.756155
  Thomas-Fermi vector in A             =   2.454678
 
 Write flags
   LWAVE        =      F    write WAVECAR
   LDOWNSAMPLE  =      F    k-point downsampling of WAVECAR
   LCHARG       =      T    write CHGCAR
   LVTOT        =      F    write LOCPOT, total local potential
   LVHAR        =      F    write LOCPOT, Hartree potential only
   LELF         =      F    write electronic localiz. function (ELF)
   LORBIT       =     11    0 simple, 1 ext, 2 COOP (PROOUT), +10 PAW based schemes


 Dipole corrections
   LMONO  =      F    monopole corrections only (constant potential shift)
   LDIPOL =      F    correct potential (dipole corrections)
   IDIPOL =      0    1-x, 2-y, 3-z, 4-all directions 
   EPSILON=  1.0000000 bulk dielectric constant

 Exchange correlation treatment:
   GGA     =    --    GGA type
   LEXCH   =     8    internal setting for exchange type
   VOSKOWN=      0    Vosko Wilk Nusair interpolation
   LHFCALC =     F    Hartree Fock is set to
   LHFONE  =     F    Hartree Fock one center treatment
   AEXX    =    0.0000 exact exchange contribution

 Linear response parameters
   LEPSILON=     F    determine dielectric tensor
   LRPA    =     F    only Hartree local field effects (RPA)
   LNABLA  =     F    use nabla operator in PAW spheres
   LVEL    =     F    velocity operator in full k-point grid
   LINTERFAST=   F  fast interpolation
   KINTER  =     0    interpolate to denser k-point grid
   CSHIFT  =0.1000    complex shift for real part using Kramers Kronig
   OMEGAMAX=  -1.0    maximum frequency
   DEG_THRESHOLD= 0.2000000E-02 threshold for treating states as degnerate
   RTIME   =   -0.100 relaxation time in fs
  (WPLASMAI=    0.000 imaginary part of plasma frequency in eV, 0.658/RTIME)
   DFIELD  = 0.0000000 0.0000000 0.0000000 field for delta impulse in time
 
 Orbital magnetization related:
   ORBITALMAG=     F  switch on orbital magnetization
   LCHIMAG   =     F  perturbation theory with respect to B field
   DQ        =  0.001000  dq finite difference perturbation B field
   LLRAUG    =     F  two centre corrections for induced B field



--------------------------------------------------------------------------------------------------------


 Static calculation
 charge density and potential will be updated during run
 spin polarized calculation
 Variant of blocked Davidson
 Davidson routine will perform the subspace rotation
 perform sub-space diagonalisation
    after iterative eigenvector-optimisation
 modified Broyden-mixing scheme, WC =      100.0
 initial mixing is a Kerker type mixing with AMIX =  0.4000 and BMIX =      1.0000
 Hartree-type preconditioning will be used
 using additional bands          191
 reciprocal scheme for non local part
 use partial core corrections
 calculate Harris-corrections to forces 
   (improved forces if not selfconsistent)
 use gradient corrections 
 use of overlap-Matrix (Vanderbilt PP)
 Methfessel and Paxton  Order N= 1 SIGMA  =   0.20


--------------------------------------------------------------------------------------------------------


  energy-cutoff  :      450.00
  volume of cell :      635.35
      direct lattice vectors                 reciprocal lattice vectors
     8.295716608  0.000000000  0.000000000     0.120544137  0.069596190  0.000000000
    -4.147858304  7.184301325  0.000000000     0.000000000  0.139192380  0.000000000
     0.000000000  0.000000000 10.660356160     0.000000000  0.000000000  0.093805496

  length of vectors
     8.295716608  8.295716607 10.660356160     0.139192380  0.139192380  0.093805496


 
 k-points in units of 2pi/SCALE and weight: Auto                                    
   0.00000000  0.00000000  0.00000000       0.002
   0.01359470  0.00784890  0.00000000       0.011
   0.02718940  0.01569781  0.00000000       0.011
   0.04078410  0.02354671  0.00000000       0.011
   0.05437880  0.03139561  0.00000000       0.011
   0.01359470  0.02354671  0.00000000       0.011
   0.02718940  0.03139561  0.00000000       0.021
   0.04078410  0.03924452  0.00000000       0.021
   0.05437880  0.04709342  0.00000000       0.011
   0.02718940  0.04709342  0.00000000       0.011
   0.04078410  0.05494233  0.00000000       0.021
   0.04078410  0.07064013  0.00000000       0.004
   0.00000000  0.00000000  0.01360180       0.004
   0.01359470  0.00784890  0.01360180       0.011
   0.01359470 -0.00784890  0.01360180       0.011
   0.02718940  0.01569781  0.01360180       0.011
   0.02718940 -0.01569781  0.01360180       0.011
   0.04078410  0.02354671  0.01360180       0.011
   0.04078410 -0.02354671  0.01360180       0.011
   0.05437880  0.03139561  0.01360180       0.011
   0.05437880 -0.03139561  0.01360180       0.011
   0.01359470  0.02354671  0.01360180       0.021
   0.02718940  0.03139561  0.01360180       0.021
   0.04078410 -0.00784890  0.01360180       0.021
   0.04078410  0.03924452  0.01360180       0.021
   0.05437880 -0.01569781  0.01360180       0.021
   0.05437880  0.04709342  0.01360180       0.021
   0.02718940  0.04709342  0.01360180       0.021
   0.04078410  0.05494233  0.01360180       0.021
  -0.05437880 -0.07848904  0.01360180       0.021
   0.04078410  0.07064013  0.01360180       0.007
   0.00000000  0.00000000  0.02720359       0.004
   0.01359470  0.00784890  0.02720359       0.011
   0.01359470 -0.00784890  0.02720359       0.011
   0.02718940  0.01569781  0.02720359       0.011
   0.02718940 -0.01569781  0.02720359       0.011
   0.04078410  0.02354671  0.02720359       0.011
   0.04078410 -0.02354671  0.02720359       0.011
   0.05437880  0.03139561  0.02720359       0.011
   0.05437880 -0.03139561  0.02720359       0.011
   0.01359470  0.02354671  0.02720359       0.021
   0.02718940  0.03139561  0.02720359       0.021
   0.04078410 -0.00784890  0.02720359       0.021
   0.04078410  0.03924452  0.02720359       0.021
   0.05437880 -0.01569781  0.02720359       0.021
   0.05437880  0.04709342  0.02720359       0.021
   0.02718940  0.04709342  0.02720359       0.021
   0.04078410  0.05494233  0.02720359       0.021
  -0.05437880 -0.07848904  0.02720359       0.021
   0.04078410  0.07064013  0.02720359       0.007
   0.00000000  0.00000000  0.04080539       0.004
   0.01359470  0.00784890  0.04080539       0.011
   0.01359470 -0.00784890  0.04080539       0.011
   0.02718940  0.01569781  0.04080539       0.011
   0.02718940 -0.01569781  0.04080539       0.011
   0.04078410  0.02354671  0.04080539       0.011
   0.04078410 -0.02354671  0.04080539       0.011
   0.05437880  0.03139561  0.04080539       0.011
   0.05437880 -0.03139561  0.04080539       0.011
   0.01359470  0.02354671  0.04080539       0.021
   0.02718940  0.03139561  0.04080539       0.021
   0.04078410 -0.00784890  0.04080539       0.021
   0.04078410  0.03924452  0.04080539       0.021
   0.05437880 -0.01569781  0.04080539       0.021
   0.05437880  0.04709342  0.04080539       0.021
   0.02718940  0.04709342  0.04080539       0.021
   0.04078410  0.05494233  0.04080539       0.021
  -0.05437880 -0.07848904  0.04080539       0.021
   0.04078410  0.07064013  0.04080539       0.007
 
 k-points in reciprocal lattice and weights: Auto                                    
   0.00000000  0.00000000  0.00000000       0.002
   0.11111111  0.00000000  0.00000000       0.011
   0.22222222 -0.00000000  0.00000000       0.011
   0.33333333  0.00000000  0.00000000       0.011
   0.44444444 -0.00000000  0.00000000       0.011
   0.11111111  0.11111111  0.00000000       0.011
   0.22222222  0.11111111  0.00000000       0.021
   0.33333333  0.11111111  0.00000000       0.021
   0.44444444  0.11111111  0.00000000       0.011
   0.22222222  0.22222222  0.00000000       0.011
   0.33333333  0.22222222  0.00000000       0.021
   0.33333333  0.33333333  0.00000000       0.004
   0.00000000  0.00000000  0.14285714       0.004
   0.11111111  0.00000000  0.14285714       0.011
   0.11111111 -0.11111111  0.14285714       0.011
   0.22222222 -0.00000000  0.14285714       0.011
   0.22222222 -0.22222222  0.14285714       0.011
   0.33333333  0.00000000  0.14285714       0.011
   0.33333333 -0.33333333  0.14285714       0.011
   0.44444444 -0.00000000  0.14285714       0.011
   0.44444444 -0.44444444  0.14285714       0.011
   0.11111111  0.11111111  0.14285714       0.021
   0.22222222  0.11111111  0.14285714       0.021
   0.33333333 -0.22222222  0.14285714       0.021
   0.33333333  0.11111111  0.14285714       0.021
   0.44444444 -0.33333333  0.14285714       0.021
   0.44444444  0.11111111  0.14285714       0.021
   0.22222222  0.22222222  0.14285714       0.021
   0.33333333  0.22222222  0.14285714       0.021
  -0.44444444 -0.33333333  0.14285714       0.021
   0.33333333  0.33333333  0.14285714       0.007
   0.00000000  0.00000000  0.28571429       0.004
   0.11111111  0.00000000  0.28571429       0.011
   0.11111111 -0.11111111  0.28571429       0.011
   0.22222222 -0.00000000  0.28571429       0.011
   0.22222222 -0.22222222  0.28571429       0.011
   0.33333333  0.00000000  0.28571429       0.011
   0.33333333 -0.33333333  0.28571429       0.011
   0.44444444 -0.00000000  0.28571429       0.011
   0.44444444 -0.44444444  0.28571429       0.011
   0.11111111  0.11111111  0.28571429       0.021
   0.22222222  0.11111111  0.28571429       0.021
   0.33333333 -0.22222222  0.28571429       0.021
   0.33333333  0.11111111  0.28571429       0.021
   0.44444444 -0.33333333  0.28571429       0.021
   0.44444444  0.11111111  0.28571429       0.021
   0.22222222  0.22222222  0.28571429       0.021
   0.33333333  0.22222222  0.28571429       0.021
  -0.44444444 -0.33333333  0.28571429       0.021
   0.33333333  0.33333333  0.28571429       0.007
   0.00000000  0.00000000  0.42857143       0.004
   0.11111111  0.00000000  0.42857143       0.011
   0.11111111 -0.11111111  0.42857143       0.011
   0.22222222 -0.00000000  0.42857143       0.011
   0.22222222 -0.22222222  0.42857143       0.011
   0.33333333  0.00000000  0.42857143       0.011
   0.33333333 -0.33333333  0.42857143       0.011
   0.44444444 -0.00000000  0.42857143       0.011
   0.44444444 -0.44444444  0.42857143       0.011
   0.11111111  0.11111111  0.42857143       0.021
   0.22222222  0.11111111  0.42857143       0.021
   0.33333333 -0.22222222  0.42857143       0.021
   0.33333333  0.11111111  0.42857143       0.021
   0.44444444 -0.33333333  0.42857143       0.021
   0.44444444  0.11111111  0.42857143       0.021
   0.22222222  0.22222222  0.42857143       0.021
   0.33333333  0.22222222  0.42857143       0.021
  -0.44444444 -0.33333333  0.42857143       0.021
   0.33333333  0.33333333  0.42857143       0.007
 
 position of ions in fractional coordinates (direct lattice) 
   0.66666667  0.83333333  0.37500000
   0.33333333  0.16666667  0.62500000
   0.16666667  0.83333333  0.37500000
   0.83333333  0.16666667  0.62500000
   0.16666667  0.33333333  0.37500000
   0.83333333  0.66666667  0.62500000
   0.83333333  0.66666667  0.12500000
   0.16666667  0.33333333  0.87500000
   0.33333333  0.16666667  0.12500000
   0.66666667  0.83333333  0.87500000
   0.83333333  0.16666667  0.12500000
   0.16666667  0.83333333  0.87500000
   0.33333333  0.66666667  0.12500000
   0.66666667  0.33333333  0.87500000
   0.66666667  0.33333333  0.37500000
   0.33333333  0.66666667  0.62500000
   0.66666667  0.83333333  0.12500000
   0.33333331  0.16666667  0.87500000
   0.16666667  0.83333333  0.12500000
   0.83333333  0.16666667  0.87500000
   0.16666667  0.33333333  0.12500000
   0.83333333  0.66666667  0.87500000
   0.83333333  0.66666667  0.37500000
   0.16666667  0.33333333  0.62500000
   0.33333333  0.16666667  0.37500000
   0.66666667  0.83333333  0.62500000
   0.83333333  0.16666667  0.37500000
   0.16666667  0.83333333  0.62500000
   0.33333333  0.66666667  0.37500000
   0.66666667  0.33333333  0.62500000
   0.66666667  0.33333333  0.12500000
   0.33333333  0.66666667  0.87500000
   0.50000000  0.50000000  0.00000000
   0.50000000  0.00000000  0.00000000
   0.00000000  0.50000000  0.00000000
   0.50000000  0.50000000  0.25000000
   0.50000000  0.50000000  0.75000000
   0.50000000  0.00000000  0.25000000
   0.50000000  0.00000000  0.75000000
   0.00000000  0.50000000  0.25000000
   0.00000000  0.50000000  0.75000000
   0.00000000  0.00000000  0.00000000
   0.00000000  0.00000000  0.25000000
   0.00000000  0.00000000  0.75000000
   0.50000000  0.50000000  0.50000000
   0.50000000  0.00000000  0.50000000
   0.00000000  0.50000000  0.50000000
   0.00000000  0.00000000  0.50000000
 
 position of ions in cartesian coordinates  (Angst):
   2.07392915  5.98691777  3.99763356
   2.07392915  1.19738355  6.66272260
  -2.07392916  5.98691777  3.99763356
   6.22178746  1.19738355  6.66272260
  -0.00000000  2.39476711  3.99763356
   4.14785830  4.78953421  6.66272260
   4.14785830  4.78953421  1.33254452
  -0.00000000  2.39476711  9.32781164
   2.07392915  1.19738355  1.33254452
   2.07392915  5.98691777  9.32781164
   6.22178746  1.19738355  1.33254452
  -2.07392916  5.98691777  9.32781164
   0.00000000  4.78953421  1.33254452
   4.14785830  2.39476711  9.32781164
   4.14785830  2.39476711  3.99763356
   0.00000000  4.78953421  6.66272260
   2.07392915  5.98691777  1.33254452
   2.07392899  1.19738355  9.32781164
  -2.07392916  5.98691777  1.33254452
   6.22178746  1.19738355  9.32781164
  -0.00000000  2.39476711  1.33254452
   4.14785830  4.78953421  9.32781164
   4.14785830  4.78953421  3.99763356
  -0.00000000  2.39476711  6.66272260
   2.07392915  1.19738355  3.99763356
   2.07392915  5.98691777  6.66272260
   6.22178746  1.19738355  3.99763356
  -2.07392916  5.98691777  6.66272260
   0.00000000  4.78953421  3.99763356
   4.14785830  2.39476711  6.66272260
   4.14785830  2.39476711  1.33254452
   0.00000000  4.78953421  9.32781164
   2.07392915  3.59215066  0.00000000
   4.14785830  0.00000000  0.00000000
  -2.07392915  3.59215066  0.00000000
   2.07392915  3.59215066  2.66508904
   2.07392915  3.59215066  7.99526712
   4.14785830  0.00000000  2.66508904
   4.14785830  0.00000000  7.99526712
  -2.07392915  3.59215066  2.66508904
  -2.07392915  3.59215066  7.99526712
   0.00000000  0.00000000  0.00000000
   0.00000000  0.00000000  2.66508904
   0.00000000  0.00000000  7.99526712
   2.07392915  3.59215066  5.33017808
   4.14785830  0.00000000  5.33017808
  -2.07392915  3.59215066  5.33017808
   0.00000000  0.00000000  5.33017808
 


--------------------------------------------------------------------------------------------------------


 k-point   1 :   0.0000 0.0000 0.0000  plane waves:   13771
 k-point   2 :   0.1111 0.0000 0.0000  plane waves:   13803
 k-point   3 :   0.2222-0.0000 0.0000  plane waves:   13809
 k-point   4 :   0.3333 0.0000 0.0000  plane waves:   13787
 k-point   5 :   0.4444-0.0000 0.0000  plane waves:   13778
 k-point   6 :   0.1111 0.1111 0.0000  plane waves:   13799
 k-point   7 :   0.2222 0.1111 0.0000  plane waves:   13781
 k-point   8 :   0.3333 0.1111 0.0000  plane waves:   13762
 k-point   9 :   0.4444 0.1111 0.0000  plane waves:   13770
 k-point  10 :   0.2222 0.2222 0.0000  plane waves:   13766
 k-point  11 :   0.3333 0.2222 0.0000  plane waves:   13767
 k-point  12 :   0.3333 0.3333 0.0000  plane waves:   13764
 k-point  13 :   0.0000 0.0000 0.1429  plane waves:   13759
 k-point  14 :   0.1111 0.0000 0.1429  plane waves:   13791
 k-point  15 :   0.1111-0.1111 0.1429  plane waves:   13791
 k-point  16 :   0.2222-0.0000 0.1429  plane waves:   13787
 k-point  17 :   0.2222-0.2222 0.1429  plane waves:   13787
 k-point  18 :   0.3333 0.0000 0.1429  plane waves:   13770
 k-point  19 :   0.3333-0.3333 0.1429  plane waves:   13770
 k-point  20 :   0.4444-0.0000 0.1429  plane waves:   13774
 k-point  21 :   0.4444-0.4444 0.1429  plane waves:   13774
 k-point  22 :   0.1111 0.1111 0.1429  plane waves:   13796
 k-point  23 :   0.2222 0.1111 0.1429  plane waves:   13782
 k-point  24 :   0.3333-0.2222 0.1429  plane waves:   13782
 k-point  25 :   0.3333 0.1111 0.1429  plane waves:   13770
 k-point  26 :   0.4444-0.3333 0.1429  plane waves:   13770
 k-point  27 :   0.4444 0.1111 0.1429  plane waves:   13773
 k-point  28 :   0.2222 0.2222 0.1429  plane waves:   13787
 k-point  29 :   0.3333 0.2222 0.1429  plane waves:   13754
 k-point  30 :  -0.4444-0.3333 0.1429  plane waves:   13754
 k-point  31 :   0.3333 0.3333 0.1429  plane waves:   13752
 k-point  32 :   0.0000 0.0000 0.2857  plane waves:   13765
 k-point  33 :   0.1111 0.0000 0.2857  plane waves:   13782
 k-point  34 :   0.1111-0.1111 0.2857  plane waves:   13782
 k-point  35 :   0.2222-0.0000 0.2857  plane waves:   13774
 k-point  36 :   0.2222-0.2222 0.2857  plane waves:   13774
 k-point  37 :   0.3333 0.0000 0.2857  plane waves:   13775
 k-point  38 :   0.3333-0.3333 0.2857  plane waves:   13775
 k-point  39 :   0.4444-0.0000 0.2857  plane waves:   13785
 k-point  40 :   0.4444-0.4444 0.2857  plane waves:   13785
 k-point  41 :   0.1111 0.1111 0.2857  plane waves:   13779
 k-point  42 :   0.2222 0.1111 0.2857  plane waves:   13781
 k-point  43 :   0.3333-0.2222 0.2857  plane waves:   13781
 k-point  44 :   0.3333 0.1111 0.2857  plane waves:   13768
 k-point  45 :   0.4444-0.3333 0.2857  plane waves:   13768
 k-point  46 :   0.4444 0.1111 0.2857  plane waves:   13780
 k-point  47 :   0.2222 0.2222 0.2857  plane waves:   13770
 k-point  48 :   0.3333 0.2222 0.2857  plane waves:   13766
 k-point  49 :  -0.4444-0.3333 0.2857  plane waves:   13766
 k-point  50 :   0.3333 0.3333 0.2857  plane waves:   13728
 k-point  51 :   0.0000 0.0000 0.4286  plane waves:   13831
 k-point  52 :   0.1111 0.0000 0.4286  plane waves:   13783
 k-point  53 :   0.1111-0.1111 0.4286  plane waves:   13783
 k-point  54 :   0.2222-0.0000 0.4286  plane waves:   13760
 k-point  55 :   0.2222-0.2222 0.4286  plane waves:   13760
 k-point  56 :   0.3333 0.0000 0.4286  plane waves:   13759
 k-point  57 :   0.3333-0.3333 0.4286  plane waves:   13759
 k-point  58 :   0.4444-0.0000 0.4286  plane waves:   13768
 k-point  59 :   0.4444-0.4444 0.4286  plane waves:   13768
 k-point  60 :   0.1111 0.1111 0.4286  plane waves:   13781
 k-point  61 :   0.2222 0.1111 0.4286  plane waves:   13754
 k-point  62 :   0.3333-0.2222 0.4286  plane waves:   13754
 k-point  63 :   0.3333 0.1111 0.4286  plane waves:   13765
 k-point  64 :   0.4444-0.3333 0.4286  plane waves:   13765
 k-point  65 :   0.4444 0.1111 0.4286  plane waves:   13776
 k-point  66 :   0.2222 0.2222 0.4286  plane waves:   13747
 k-point  67 :   0.3333 0.2222 0.4286  plane waves:   13770
 k-point  68 :  -0.4444-0.3333 0.4286  plane waves:   13770
 k-point  69 :   0.3333 0.3333 0.4286  plane waves:   13749

 maximum and minimum number of plane-waves per node :      2331     2264

 maximum number of plane-waves:     13831
 maximum index in each direction: 
   IXMAX=   14   IYMAX=   14   IZMAX=   18
   IXMIN=  -14   IYMIN=  -14   IZMIN=  -18


 parallel 3D FFT for wavefunctions:
    minimum data exchange during FFTs selected (reduces bandwidth)
 parallel 3D FFT for charge:
    minimum data exchange during FFTs selected (reduces bandwidth)


 total amount of memory used by VASP MPI-rank0   625384. kBytes
=======================================================================

   base      :      30000. kBytes
   nonl-proj :      93177. kBytes
   fftplans  :       4707. kBytes
   grid      :      13171. kBytes
   one-center:        248. kBytes
   wavefun   :     484081. kBytes
 
     INWAV:  cpu time    0.0000: real time    0.0043
 Broyden mixing: mesh for mixing (old mesh)
   NGX = 29   NGY = 29   NGZ = 37
  (NGX  =120   NGY  =120   NGZ  =160)
  gives a total of  31117 points

 initial charge density was supplied:
 charge density of overlapping atoms calculated
 number of electron     337.0000000 magnetization     160.0000000
 keeping initial charge density in first step


--------------------------------------------------------------------------------------------------------


 Maximum index for augmentation-charges         1062 (set IRDMAX)


--------------------------------------------------------------------------------------------------------


 First call to EWALD:  gamma=   0.206
 Maximum number of real-space cells 3x 3x 2
 Maximum number of reciprocal cells 3x 3x 3

    FEWALD:  cpu time    0.0030: real time    0.0070


--------------------------------------- Iteration      1(   1)  ---------------------------------------


    POTLOK:  cpu time    0.2110: real time    0.5000
    SETDIJ:  cpu time    0.0340: real time    0.1573
     EDDAV:  cpu time  357.4257: real time  360.5687
       DOS:  cpu time    0.0430: real time    0.0867
    --------------------------------------------
      LOOP:  cpu time  357.7136: real time  361.3128

 eigenvalue-minimisations  : 99376
 total energy-change (2. order) : 0.2757054E+04  (-0.1093991E+05)
 number of electron     337.0000000 magnetization     160.0000000
 augmentation part      337.0000000 magnetization     160.0000000

 Free energy of the ion-electron system (eV)
  ---------------------------------------------------
  alpha Z        PSCENC =      1511.65769275
  Ewald energy   TEWEN  =    -22170.47180721
  -Hartree energ DENC   =     -6855.24602547
  -exchange      EXHF   =         0.00000000
  -V(xc)+E(xc)   XCENC  =       311.86441865
  PAW double counting   =     23377.83946347   -23998.34197029
  entropy T*S    EENTRO =        -0.00269332
  eigenvalues    EBANDS =      4811.52785062
  atomic energy  EATOM  =     25768.22672671
  Solvation  Ediel_sol  =         0.00000000
  ---------------------------------------------------
  free energy    TOTEN  =      2757.05365592 eV

  energy without entropy =     2757.05634925  energy(sigma->0) =     2757.05455370


--------------------------------------------------------------------------------------------------------




--------------------------------------- Iteration      1(   2)  ---------------------------------------


     EDDAV:  cpu time  357.1577: real time  359.1140
       DOS:  cpu time    0.0490: real time    0.0492
    --------------------------------------------
      LOOP:  cpu time  357.2067: real time  359.1632

 eigenvalue-minimisations  : 99360
 total energy-change (2. order) :-0.2600595E+04  (-0.2322082E+04)
 number of electron     337.0000000 magnetization     160.0000000
 augmentation part      337.0000000 magnetization     160.0000000

 Free energy of the ion-electron system (eV)
  ---------------------------------------------------
  alpha Z        PSCENC =      1511.65769275
  Ewald energy   TEWEN  =    -22170.47180721
  -Hartree energ DENC   =     -6855.24602547
  -exchange      EXHF   =         0.00000000
  -V(xc)+E(xc)   XCENC  =       311.86441865
  PAW double counting   =     23377.83946347   -23998.34197029
  entropy T*S    EENTRO =         0.00240640
  eigenvalues    EBANDS =      2210.92788183
  atomic energy  EATOM  =     25768.22672671
  Solvation  Ediel_sol  =         0.00000000
  ---------------------------------------------------
  free energy    TOTEN  =       156.45878686 eV

  energy without entropy =      156.45638045  energy(sigma->0) =      156.45798472


--------------------------------------------------------------------------------------------------------




--------------------------------------- Iteration      1(   3)  ---------------------------------------


     EDDAV:  cpu time  357.9636: real time  359.4407
       DOS:  cpu time    0.0580: real time    0.0583
    --------------------------------------------
      LOOP:  cpu time  358.0216: real time  359.4990

 eigenvalue-minimisations  : 99496
 total energy-change (2. order) :-0.4235350E+03  (-0.3478752E+03)
 number of electron     337.0000000 magnetization     160.0000000
 augmentation part      337.0000000 magnetization     160.0000000

 Free energy of the ion-electron system (eV)
  ---------------------------------------------------
  alpha Z        PSCENC =      1511.65769275
  Ewald energy   TEWEN  =    -22170.47180721
  -Hartree energ DENC   =     -6855.24602547
  -exchange      EXHF   =         0.00000000
  -V(xc)+E(xc)   XCENC  =       311.86441865
  PAW double counting   =     23377.83946347   -23998.34197029
  entropy T*S    EENTRO =         0.03855416
  eigenvalues    EBANDS =      1787.35672639
  atomic energy  EATOM  =     25768.22672671
  Solvation  Ediel_sol  =         0.00000000
  ---------------------------------------------------
  free energy    TOTEN  =      -267.07622082 eV

  energy without entropy =     -267.11477499  energy(sigma->0) =     -267.08907221


--------------------------------------------------------------------------------------------------------




--------------------------------------- Iteration      1(   4)  ---------------------------------------


     EDDAV:  cpu time  419.4742: real time  421.2043
       DOS:  cpu time    0.0600: real time    0.0609
    --------------------------------------------
      LOOP:  cpu time  419.5342: real time  421.2652

 eigenvalue-minimisations  :122096
 total energy-change (2. order) :-0.3014014E+02  (-0.2879764E+02)
 number of electron     337.0000000 magnetization     160.0000000
 augmentation part      337.0000000 magnetization     160.0000000

 Free energy of the ion-electron system (eV)
  ---------------------------------------------------
  alpha Z        PSCENC =      1511.65769275
  Ewald energy   TEWEN  =    -22170.47180721
  -Hartree energ DENC   =     -6855.24602547
  -exchange      EXHF   =         0.00000000
  -V(xc)+E(xc)   XCENC  =       311.86441865
  PAW double counting   =     23377.83946347   -23998.34197029
  entropy T*S    EENTRO =         0.05677599
  eigenvalues    EBANDS =      1757.19836115
  atomic energy  EATOM  =     25768.22672671
  Solvation  Ediel_sol  =         0.00000000
  ---------------------------------------------------
  free energy    TOTEN  =      -297.21636424 eV

  energy without entropy =     -297.27314023  energy(sigma->0) =     -297.23528957


--------------------------------------------------------------------------------------------------------




--------------------------------------- Iteration      1(   5)  ---------------------------------------


     EDDAV:  cpu time  414.8769: real time  416.6226
       DOS:  cpu time    0.0610: real time    0.0608
    CHARGE:  cpu time    6.3020: real time    6.4065
    MIXING:  cpu time    0.0080: real time    0.0795
    --------------------------------------------
      LOOP:  cpu time  421.2480: real time  423.1694

 eigenvalue-minimisations  :120520
 total energy-change (2. order) :-0.7812380E+00  (-0.7793305E+00)
 number of electron     337.0000079 magnetization     128.4019316
 augmentation part      119.5496278 magnetization     102.8722184

 Broyden mixing:
  rms(total) = 0.98111E+01    rms(broyden)= 0.98108E+01
  rms(prec ) = 0.10783E+02
  weight for this iteration     100.00

 Free energy of the ion-electron system (eV)
  ---------------------------------------------------
  alpha Z        PSCENC =      1511.65769275
  Ewald energy   TEWEN  =    -22170.47180721
  -Hartree energ DENC   =     -6855.24602547
  -exchange      EXHF   =         0.00000000
  -V(xc)+E(xc)   XCENC  =       311.86441865
  PAW double counting   =     23377.83946347   -23998.34197029
  entropy T*S    EENTRO =         0.05681958
  eigenvalues    EBANDS =      1756.41707951
  atomic energy  EATOM  =     25768.22672671
  Solvation  Ediel_sol  =         0.00000000
  ---------------------------------------------------
  free energy    TOTEN  =      -297.99760229 eV

  energy without entropy =     -298.05442186  energy(sigma->0) =     -298.01654215


--------------------------------------------------------------------------------------------------------




--------------------------------------- Iteration      1(   6)  ---------------------------------------


    POTLOK:  cpu time    0.1920: real time    0.2015
    SETDIJ:  cpu time    0.0310: real time    0.0304
     EDDAV:  cpu time  430.3606: real time  432.1199
       DOS:  cpu time    0.0630: real time    0.0633
    CHARGE:  cpu time    5.9341: real time    5.9445
    MIXING:  cpu time    0.0080: real time    0.1308
    --------------------------------------------
[...]
   43        0.022   0.019   3.126   3.167
   44        0.022   0.019   3.126   3.167
   45        0.019   0.021   3.039   3.080
   46        0.019   0.021   3.039   3.080
   47        0.019   0.021   3.039   3.080
   48        0.015   0.010   2.457   2.481
--------------------------------------------------
tot         -0.262  -1.671  51.104  49.170
 
    CHARGE:  cpu time    5.9021: real time    5.9150
    FORLOC:  cpu time    0.0270: real time    0.0354
    FORNL :  cpu time  116.6283: real time  117.0380
    STRESS:  cpu time  204.2410: real time  204.9976
    FORCOR:  cpu time    0.2120: real time    0.2409
    FORHAR:  cpu time    0.0440: real time    0.0527
    MIXING:  cpu time    0.0100: real time    0.0099
    OFIELD:  cpu time    0.0000: real time    0.0049

  FORCE on cell =-STRESS in cart. coord.  units (eV):
  Direction    XX          YY          ZZ          XY          YZ          ZX
  --------------------------------------------------------------------------------------
  Alpha Z  1511.65769  1511.65769  1511.65769
  Ewald   -7174.80630 -7174.80630 -7820.95170    -0.00001     0.00000     0.00000
  Hartree  2177.45461  2177.45461  2037.89865    -0.00000     0.00000    -0.00000
  E(xc)   -1650.39639 -1650.39641 -1654.30685    -0.00001     0.00000    -0.00000
  Local    -768.08420  -768.08515   -90.79538    -0.00081    -0.00000     0.00000
  n-local  -247.18067  -250.17051  -284.76632     1.08891    -0.64918    -0.39543
  augment  3305.35650  3305.35719  3374.37946     0.00059     0.00000    -0.00000
  Kinetic  2826.02624  2823.90473  2908.56329     1.62782    -0.50537     0.64347
  Fock        0.00000     0.00000     0.00000     0.00000     0.00000     0.00000
  -------------------------------------------------------------------------------------
  Total     -22.52833   -22.52833   -18.32116     0.00000     0.00000    -0.00000
  in kB     -56.81062   -56.81062   -46.20120     0.00000     0.00000    -0.00000
  external pressure =      -53.27 kB  Pullay stress =        0.00 kB


 VOLUME and BASIS-vectors are now :
 -----------------------------------------------------------------------------
  energy-cutoff  :      450.00
  volume of cell :      635.35
      direct lattice vectors                 reciprocal lattice vectors
     8.295716608  0.000000000  0.000000000     0.120544137  0.069596190  0.000000000
    -4.147858304  7.184301325  0.000000000     0.000000000  0.139192380  0.000000000
     0.000000000  0.000000000 10.660356160     0.000000000  0.000000000  0.093805496

  length of vectors
     8.295716608  8.295716607 10.660356160     0.139192380  0.139192380  0.093805496


 FORCES acting on ions
    electron-ion (+dipol)            ewald-force                    non-local-force                 convergence-correction
 -----------------------------------------------------------------------------------------------
   0.117E+02 0.678E+01 0.959E+01   -.118E+02 -.679E+01 -.957E+01   0.419E-01 0.242E-01 0.469E-02   -.153E-01 -.885E-02 -.863E-02
   -.117E+02 -.678E+01 -.959E+01   0.118E+02 0.679E+01 0.957E+01   -.419E-01 -.242E-01 -.469E-02   0.153E-01 0.885E-02 0.863E-02
   -.117E+02 0.678E+01 0.959E+01   0.118E+02 -.679E+01 -.957E+01   -.419E-01 0.242E-01 0.469E-02   0.153E-01 -.885E-02 -.863E-02
   0.117E+02 -.678E+01 -.959E+01   -.118E+02 0.679E+01 0.957E+01   0.419E-01 -.242E-01 -.469E-02   -.153E-01 0.885E-02 0.863E-02
   0.510E-06 -.136E+02 0.959E+01   0.102E-05 0.136E+02 -.957E+01   0.195E-17 -.484E-01 0.469E-02   0.193E-07 0.177E-01 -.863E-02
   -.772E-06 0.136E+02 -.959E+01   -.615E-06 -.136E+02 0.957E+01   -.108E-18 0.484E-01 -.469E-02   -.190E-07 -.177E-01 0.863E-02
   -.674E-06 0.173E+01 0.408E+01   -.615E-06 -.174E+01 -.410E+01   0.217E-18 0.281E-01 0.217E-01   -.121E-07 0.538E-02 -.506E-02
   -.108E-05 -.173E+01 -.408E+01   -.866E-05 0.174E+01 0.410E+01   0.325E-18 -.281E-01 -.217E-01   0.120E-07 -.538E-02 0.506E-02
   -.150E+01 -.864E+00 0.408E+01   0.151E+01 0.871E+00 -.410E+01   -.243E-01 -.140E-01 0.217E-01   -.466E-02 -.269E-02 -.506E-02
   0.150E+01 0.864E+00 -.408E+01   -.151E+01 -.871E+00 0.410E+01   0.243E-01 0.140E-01 -.217E-01   0.466E-02 0.269E-02 0.506E-02
   0.150E+01 -.864E+00 0.408E+01   -.151E+01 0.871E+00 -.410E+01   0.243E-01 -.140E-01 0.217E-01   0.466E-02 -.269E-02 -.506E-02
   -.150E+01 0.864E+00 -.408E+01   0.151E+01 -.871E+00 0.410E+01   -.243E-01 0.140E-01 -.217E-01   -.466E-02 0.269E-02 0.506E-02
   -.675E-06 0.237E-06 0.271E+01   -.615E-06 0.203E-05 -.271E+01   -.217E-18 0.434E-18 -.225E-02   0.173E-08 -.331E-07 0.143E-02
   -.108E-05 -.190E-05 -.271E+01   -.865E-05 -.897E-05 0.271E+01   0.867E-18 -.434E-18 0.225E-02   -.181E-08 0.229E-07 -.143E-02
   0.372E-06 -.564E-06 0.339E+01   0.105E-05 -.117E-06 -.341E+01   0.434E-18 0.651E-18 0.433E-01   -.710E-08 0.150E-07 -.159E-02
   -.664E-06 0.234E-06 -.339E+01   -.615E-06 0.203E-05 0.341E+01   -.434E-18 -.651E-18 -.433E-01   0.748E-08 -.364E-07 0.159E-02
   0.600E+00 0.346E+00 0.162E+01   -.603E+00 -.348E+00 -.164E+01   0.111E-01 0.642E-02 0.251E-02   0.183E-02 0.106E-02 -.222E-02
   -.600E+00 -.346E+00 -.162E+01   0.603E+00 0.348E+00 0.164E+01   -.111E-01 -.642E-02 -.251E-02   -.183E-02 -.106E-02 0.222E-02
   -.600E+00 0.346E+00 0.162E+01   0.603E+00 -.348E+00 -.164E+01   -.111E-01 0.642E-02 0.251E-02   -.183E-02 0.106E-02 -.222E-02
   0.600E+00 -.346E+00 -.162E+01   -.603E+00 0.348E+00 0.164E+01   0.111E-01 -.642E-02 -.251E-02   0.183E-02 -.106E-02 0.222E-02
   0.159E-05 -.693E+00 0.162E+01   0.347E-06 0.697E+00 -.164E+01   -.867E-18 -.128E-01 0.251E-02   0.170E-08 -.212E-02 -.222E-02
   -.155E-05 0.693E+00 -.162E+01   -.597E-06 -.697E+00 0.164E+01   -.173E-17 0.128E-01 -.251E-02   -.158E-08 0.212E-02 0.222E-02
   -.153E-05 0.541E+01 0.382E+01   -.410E-06 -.543E+01 -.383E+01   -.694E-17 0.112E+00 0.839E-01   -.327E-08 -.696E-02 -.342E-02
   0.161E-05 -.541E+01 -.382E+01   0.339E-06 0.543E+01 0.383E+01   0.520E-17 -.112E+00 -.839E-01   0.332E-08 0.696E-02 0.342E-02
   -.468E+01 -.270E+01 0.382E+01   0.470E+01 0.271E+01 -.383E+01   -.970E-01 -.560E-01 0.839E-01   0.602E-02 0.348E-02 -.342E-02
   0.468E+01 0.270E+01 -.382E+01   -.470E+01 -.271E+01 0.383E+01   0.970E-01 0.560E-01 -.839E-01   -.602E-02 -.348E-02 0.342E-02
   0.468E+01 -.270E+01 0.382E+01   -.470E+01 0.271E+01 -.383E+01   0.970E-01 -.560E-01 0.839E-01   -.602E-02 0.348E-02 -.342E-02
   -.468E+01 0.270E+01 -.382E+01   0.470E+01 -.271E+01 0.383E+01   -.970E-01 0.560E-01 -.839E-01   0.602E-02 -.348E-02 0.342E-02
   -.152E-05 0.102E-05 0.136E+01   -.410E-06 0.610E-06 -.136E+01   0.520E-17 0.173E-17 0.380E-02   0.366E-09 -.750E-08 -.240E-03
   0.159E-05 -.889E-06 -.136E+01   0.352E-06 -.573E-06 0.136E+01   -.694E-17 -.520E-17 -.380E-02   -.296E-09 0.557E-08 0.240E-03
   0.160E-05 -.888E-06 0.109E+01   0.349E-06 -.575E-06 -.108E+01   0.173E-17 0.000E+00 0.122E-01   -.813E-09 0.587E-08 0.861E-03
   -.156E-05 0.119E-05 -.109E+01   -.597E-06 0.166E-05 0.108E+01   0.260E-17 0.000E+00 -.122E-01   0.931E-09 -.146E-07 -.861E-03
   0.547E-06 0.276E-06 0.177E-10   0.217E-05 -.687E-06 -.205E-12   0.132E-22 0.000E+00 0.000E+00   -.234E-07 -.207E-10 0.581E-13
   -.291E-06 0.759E-06 -.519E-06   -.338E-05 0.252E-05 -.343E-05   0.000E+00 0.000E+00 0.000E+00   -.103E-10 -.135E-07 0.632E-08
   -.285E-08 0.275E-06 -.345E-10   -.147E-05 -.687E-06 -.171E-13   -.290E-23 0.000E+00 0.000E+00   0.230E-07 -.232E-10 -.308E-11
   0.809E-02 -.467E-02 0.339E+01   -.799E-07 -.687E-06 -.340E+01   -.289E-02 0.167E-02 0.176E-01   0.642E-03 -.371E-03 -.349E-03
   -.809E-02 0.467E-02 -.339E+01   0.217E-05 -.687E-06 0.340E+01   0.289E-02 -.167E-02 -.176E-01   -.642E-03 0.371E-03 0.349E-03
   0.148E-06 0.934E-02 0.339E+01   -.463E-06 -.466E-06 -.340E+01   0.542E-19 -.334E-02 0.176E-01   -.167E-09 0.742E-03 -.349E-03
   -.290E-06 -.934E-02 -.339E+01   -.338E-05 0.252E-05 0.340E+01   0.000E+00 0.334E-02 -.176E-01   0.240E-09 -.742E-03 0.349E-03
   -.809E-02 -.467E-02 0.339E+01   -.648E-06 -.687E-06 -.340E+01   0.289E-02 0.167E-02 0.176E-01   -.642E-03 -.371E-03 -.349E-03
   0.809E-02 0.467E-02 -.339E+01   -.147E-05 -.687E-06 0.340E+01   -.289E-02 -.167E-02 -.176E-01   0.642E-03 0.371E-03 0.349E-03
   -.291E-06 -.208E-06 0.519E-06   -.338E-05 -.389E-05 0.343E-05   0.000E+00 0.000E+00 0.000E+00   -.125E-10 0.135E-07 -.632E-08
   0.147E-06 0.238E-06 0.135E+02   -.463E-06 -.908E-06 -.136E+02   -.325E-18 0.325E-18 0.285E+00   -.151E-08 0.917E-08 -.207E-01
   -.288E-06 -.204E-06 -.135E+02   -.338E-05 -.389E-05 0.136E+02   0.325E-18 -.108E-18 -.285E+00   0.159E-08 0.125E-07 0.207E-01
   0.207E-06 0.276E-06 -.311E-11   -.799E-07 -.687E-06 -.107E-13   0.538E-23 0.000E+00 0.000E+00   -.142E-07 -.250E-10 -.215E-12
   0.149E-06 0.309E-06 0.754E-07   -.463E-06 -.466E-06 0.499E-06   -.662E-23 0.000E+00 0.000E+00   0.840E-10 -.830E-08 -.584E-08
   0.121E-06 0.276E-06 0.206E-10   -.648E-06 -.687E-06 -.426E-13   0.331E-23 0.000E+00 0.000E+00   0.141E-07 -.243E-10 0.122E-11
   0.170E-06 0.277E-06 -.861E-07   -.529E-06 -.104E-05 -.571E-06   -.662E-23 0.000E+00 0.000E+00   0.102E-09 0.962E-08 0.688E-08
 -----------------------------------------------------------------------------------------------
   -.429E-05 0.222E-05 -.792E-07   0.977E-13 -.150E-13 -.123E-12   -.247E-16 -.245E-16 -.555E-16   -.130E-08 0.161E-08 0.147E-08
 
 
 POSITION                                       TOTAL-FORCE (eV/Angst)
 -----------------------------------------------------------------------------------
      2.07393      5.98692      3.99763         0.012835      0.007410      0.011956
      2.07393      1.19738      6.66272        -0.012835     -0.007410     -0.011956
     -2.07393      5.98692      3.99763        -0.012835      0.007410      0.011956
      6.22179      1.19738      6.66272         0.012835     -0.007410     -0.011956
     -0.00000      2.39477      3.99763         0.000000     -0.014820      0.011956
      4.14786      4.78953      6.66272        -0.000000      0.014820     -0.011956
      4.14786      4.78953      1.33254        -0.000000      0.019455     -0.006171
     -0.00000      2.39477      9.32781         0.000000     -0.019455      0.006171
      2.07393      1.19738      1.33254        -0.016848     -0.009727     -0.006171
      2.07393      5.98692      9.32781         0.016848      0.009727      0.006171
      6.22179      1.19738      1.33254         0.016848     -0.009727     -0.006171
     -2.07393      5.98692      9.32781        -0.016848      0.009727      0.006171
      0.00000      4.78953      1.33254         0.000000     -0.000000     -0.002595
      4.14786      2.39477      9.32781        -0.000000     -0.000000      0.002595
      4.14786      2.39477      3.99763        -0.000000     -0.000000      0.022223
      0.00000      4.78953      6.66272         0.000000     -0.000000     -0.022223
      2.07393      5.98692      1.33254         0.009522      0.005498     -0.017126
      2.07393      1.19738      9.32781        -0.009522     -0.005498      0.017126
     -2.07393      5.98692      1.33254        -0.009522      0.005498     -0.017126
      6.22179      1.19738      9.32781         0.009522     -0.005498      0.017126
     -0.00000      2.39477      1.33254        -0.000000     -0.010995     -0.017126
      4.14786      4.78953      9.32781         0.000000      0.010995      0.017126
      4.14786      4.78953      3.99763        -0.000000      0.084454      0.066768
     -0.00000      2.39477      6.66272         0.000000     -0.084454     -0.066768
      2.07393      1.19738      3.99763        -0.073140     -0.042227      0.066768
      2.07393      5.98692      6.66272         0.073140      0.042227     -0.066768
      6.22179      1.19738      3.99763         0.073140     -0.042227      0.066768
     -2.07393      5.98692      6.66272        -0.073140      0.042227     -0.066768
      0.00000      4.78953      3.99763        -0.000000     -0.000000     -0.001400
      4.14786      2.39477      6.66272        -0.000000     -0.000000      0.001400
      4.14786      2.39477      1.33254         0.000000     -0.000000      0.021327
      0.00000      4.78953      9.32781        -0.000000     -0.000000     -0.021327
      2.07393      3.59215      0.00000         0.000000     -0.000000      0.000000
      4.14786      0.00000      0.00000         0.000000     -0.000000      0.000000
     -2.07393      3.59215      0.00000        -0.000000     -0.000000      0.000000
      2.07393      3.59215      2.66509         0.005843     -0.003373      0.005979
      2.07393      3.59215      7.99527        -0.005843      0.003373     -0.005979
      4.14786      0.00000      2.66509         0.000000      0.006747      0.005979
      4.14786      0.00000      7.99527        -0.000000     -0.006747     -0.005979
     -2.07393      3.59215      2.66509        -0.005843     -0.003373      0.005979
     -2.07393      3.59215      7.99527         0.005843      0.003373     -0.005979
      0.00000      0.00000      0.00000         0.000000     -0.000000      0.000000
      0.00000      0.00000      2.66509         0.000000     -0.000000      0.224149
      0.00000      0.00000      7.99527         0.000000     -0.000000     -0.224149
      2.07393      3.59215      5.33018         0.000000     -0.000000      0.000000
      4.14786      0.00000      5.33018        -0.000000     -0.000000      0.000000
     -2.07393      3.59215      5.33018        -0.000000     -0.000000      0.000000
      0.00000      0.00000      5.33018         0.000000     -0.000000      0.000000
 -----------------------------------------------------------------------------------
    total drift:                               -0.000004      0.000002     -0.000000


--------------------------------------------------------------------------------------------------------



  FREE ENERGIE OF THE ION-ELECTRON SYSTEM (eV)
  ---------------------------------------------------
  free  energy   TOTEN  =      -312.70859508 eV

  energy  without entropy=     -312.67607015  energy(sigma->0) =     -312.69775343
 


--------------------------------------------------------------------------------------------------------


    POTLOK:  cpu time    0.2260: real time    0.2519


--------------------------------------------------------------------------------------------------------


     LOOP+:  cpu time15618.5336: real time15684.9682
    4ORBIT:  cpu time    0.0000: real time    0.0000
 


 total charge     
 
# of ion       s       p       d       tot
------------------------------------------
    1        0.454   0.482   8.432   9.368
    2        0.454   0.482   8.432   9.368
    3        0.454   0.482   8.432   9.368
    4        0.454   0.482   8.432   9.368
    5        0.454   0.482   8.432   9.368
    6        0.454   0.482   8.432   9.368
    7        0.455   0.485   8.433   9.373
    8        0.455   0.485   8.433   9.373
    9        0.455   0.485   8.433   9.373
   10        0.455   0.485   8.433   9.373
   11        0.455   0.485   8.433   9.373
   12        0.455   0.485   8.433   9.373
   13        0.455   0.486   8.431   9.372
   14        0.455   0.486   8.431   9.372
   15        0.455   0.483   8.434   9.373
   16        0.455   0.483   8.434   9.373
   17        1.087   1.231   0.111   2.429
   18        1.087   1.231   0.111   2.429
   19        1.087   1.231   0.111   2.429
   20        1.087   1.231   0.111   2.429
   21        1.087   1.231   0.111   2.429
   22        1.087   1.231   0.111   2.429
   23        1.087   1.227   0.111   2.424
   24        1.087   1.227   0.111   2.424
   25        1.087   1.227   0.111   2.424
   26        1.087   1.227   0.111   2.424
   27        1.087   1.227   0.111   2.424
   28        1.087   1.227   0.111   2.424
   29        1.087   1.230   0.111   2.429
   30        1.087   1.230   0.111   2.429
   31        1.086   1.233   0.111   2.430
   32        1.086   1.233   0.111   2.430
   33        0.272   0.301   5.058   5.632
   34        0.272   0.301   5.058   5.632
   35        0.272   0.301   5.058   5.632
   36        0.272   0.302   5.058   5.632
   37        0.272   0.302   5.058   5.632
   38        0.272   0.302   5.058   5.632
   39        0.272   0.302   5.058   5.632
   40        0.272   0.302   5.058   5.632
   41        0.272   0.302   5.058   5.632
   42        0.271   0.299   5.068   5.639
   43        0.271   0.304   5.044   5.620
   44        0.271   0.304   5.044   5.620
   45        0.273   0.302   5.057   5.632
   46        0.273   0.302   5.057   5.632
   47        0.273   0.302   5.057   5.632
   48        0.345   0.392   6.236   6.972
--------------------------------------------------
tot         29.089  32.331 218.787 280.206
 


 magnetization (x)
 
# of ion       s       p       d       tot
------------------------------------------
    1       -0.021  -0.032   0.179   0.125
    2       -0.021  -0.032   0.179   0.125
    3       -0.021  -0.032   0.179   0.125
    4       -0.021  -0.032   0.179   0.125
    5       -0.021  -0.032   0.179   0.125
    6       -0.021  -0.032   0.179   0.125
    7       -0.023  -0.032   0.179   0.124
    8       -0.023  -0.032   0.179   0.124
    9       -0.023  -0.032   0.179   0.124
   10       -0.023  -0.032   0.179   0.124
   11       -0.023  -0.032   0.179   0.124
   12       -0.023  -0.032   0.179   0.124
   13       -0.024  -0.033   0.186   0.130
   14       -0.024  -0.033   0.186   0.130
   15       -0.021  -0.030   0.182   0.131
   16       -0.021  -0.030   0.182   0.131
   17       -0.015  -0.093   0.004  -0.104
   18       -0.015  -0.093   0.004  -0.104
   19       -0.015  -0.093   0.004  -0.104
   20       -0.015  -0.093   0.004  -0.104
   21       -0.015  -0.093   0.004  -0.104
   22       -0.015  -0.093   0.004  -0.104
   23       -0.013  -0.089   0.003  -0.099
   24       -0.013  -0.089   0.003  -0.099
   25       -0.013  -0.089   0.003  -0.099
   26       -0.013  -0.089   0.003  -0.099
   27       -0.013  -0.089   0.003  -0.099
   28       -0.013  -0.089   0.003  -0.099
   29       -0.014  -0.093   0.004  -0.103
   30       -0.014  -0.093   0.004  -0.103
   31       -0.015  -0.096   0.004  -0.108
   32       -0.015  -0.096   0.004  -0.108
   33        0.020   0.020   3.037   3.077
   34        0.020   0.020   3.037   3.077
   35        0.020   0.020   3.037   3.077
   36        0.021   0.020   3.039   3.080
   37        0.021   0.020   3.039   3.080
   38        0.021   0.020   3.039   3.080
   39        0.021   0.020   3.039   3.080
   40        0.021   0.020   3.039   3.080
   41        0.021   0.020   3.039   3.080
   42        0.019   0.020   2.985   3.025
   43        0.022   0.019   3.126   3.167
   44        0.022   0.019   3.126   3.167
   45        0.019   0.021   3.039   3.080
   46        0.019   0.021   3.039   3.080
   47        0.019   0.021   3.039   3.080
   48        0.015   0.010   2.457   2.481
--------------------------------------------------
tot         -0.262  -1.671  51.104  49.170
 

 total amount of memory used by VASP MPI-rank0   625384. kBytes
=======================================================================

   base      :      30000. kBytes
   nonl-proj :      93177. kBytes
   fftplans  :       4707. kBytes
   grid      :      13171. kBytes
   one-center:        248. kBytes
   wavefun   :     484081. kBytes
 
  
  
 General timing and accounting informations for this job:
 ========================================================
  
                  Total CPU time used (sec):    15879.634
                            User time (sec):    15739.093
                          System time (sec):      140.541
                         Elapsed time (sec):    15954.608
  
                   Maximum memory used (kb):      883520.
                   Average memory used (kb):           0.
  
                          Minor page faults:        74737
                          Major page faults:          800
                 Voluntary context switches:         7221
